LAMMPS (28 Mar 2023 - Development)
KOKKOS mode is enabled (src/KOKKOS/kokkos.cpp:106)
  will use up to 1 GPU(s) per node
  using 1 OpenMP thread(s) per MPI task
Lattice spacing in x,y,z = 5.43 5.43 5.43
Created orthogonal box = (0 0 0) to (21.72 21.72 21.72)
  1 by 1 by 1 MPI processor grid
Created 512 atoms
  using lattice units in orthogonal box = (0 0 0) to (21.72 21.72 21.72)
  create_atoms CPU = 0.001 seconds
Reading comb potential file ffield.comb with DATE: 2011-02-22
Pair COMB:
  generating Coulomb integral lookup table ...
  element[1] = Si, z = 0.772871
  will not apply over-coordination correction ...
Neighbor list info ...
  update: every = 1 steps, delay = 1 steps, check = yes
  max neighbors/atom: 2000, page size: 100000
  master list distance cutoff = 12.5
  ghost atom cutoff = 12.5
  binsize = 12.5, bins = 2 2 2
  1 neighbor lists, perpetual/occasional/extra = 1 0 0
  (1) pair comb, perpetual
      attributes: full, newton on
      pair build: full/bin/atomonly
      stencil: full/bin/3d
      bin: standard
Setting up Verlet run ...
  Unit style    : metal
  Current step  : 0
  Time step     : 0.0002
Per MPI rank memory allocation (min/avg/max) = 8.045 | 8.045 | 8.045 Mbytes
   Step          Temp          TotEng         PotEng         E_vdwl         E_coul         Press          Volume           Lx             Ly             Lz             Xz      
         0   10.1          -4.6284152     -4.6297182     -4.6297182      0              1140.7851      10246.592      21.72          21.72          21.72          0            
       100   9.6772643     -4.6284695     -4.6297179     -4.6297179      0              1137.9173      10246.592      21.72          21.72          21.72          0            
       200   9.2654492     -4.6285226     -4.6297179     -4.6297179      0              1135.0818      10246.592      21.72          21.72          21.72          0            
       300   8.8667117     -4.628574      -4.6297179     -4.6297179      0              1132.3364      10246.592      21.72          21.72          21.72          0            
       400   8.4810517     -4.6286238     -4.6297179     -4.6297179      0              1129.681       10246.592      21.72          21.72          21.72          0            
       500   8.1084693     -4.6286719     -4.6297179     -4.6297179      0              1127.1156      10246.592      21.72          21.72          21.72          0            
       600   7.7489645     -4.6287182     -4.6297179     -4.6297179      0              1124.6403      10246.592      21.72          21.72          21.72          0            
       700   7.4025372     -4.6287629     -4.6297179     -4.6297179      0              1122.255       10246.592      21.72          21.72          21.72          0            
       800   7.0691875     -4.6288059     -4.6297179     -4.6297179      0              1119.9598      10246.592      21.72          21.72          21.72          0            
       900   6.7489153     -4.6288473     -4.6297179     -4.6297179      0              1117.7546      10246.592      21.72          21.72          21.72          0            
      1000   6.4417207     -4.6288869     -4.6297179     -4.6297179      0              1115.6395      10246.592      21.72          21.72          21.72          0            
Loop time of 5.32294 on 1 procs for 1000 steps with 512 atoms

Performance: 3.246 ns/day, 7.393 hours/ns, 187.866 timesteps/s, 96.187 katom-step/s
100.0% CPU use with 1 MPI tasks x 1 OpenMP threads

MPI task timing breakdown:
Section |  min time  |  avg time  |  max time  |%varavg| %total
---------------------------------------------------------------
Pair    | 5.0337     | 5.0337     | 5.0337     |   0.0 | 94.57
Neigh   | 0          | 0          | 0          |   0.0 |  0.00
Comm    | 0.15663    | 0.15663    | 0.15663    |   0.0 |  2.94
Output  | 0.00041625 | 0.00041625 | 0.00041625 |   0.0 |  0.01
Modify  | 0.12234    | 0.12234    | 0.12234    |   0.0 |  2.30
Other   |            | 0.009826   |            |       |  0.18

Nlocal:            512 ave         512 max         512 min
Histogram: 1 0 0 0 0 0 0 0 0 0
Nghost:           4861 ave        4861 max        4861 min
Histogram: 1 0 0 0 0 0 0 0 0 0
Neighs:              0 ave           0 max           0 min
Histogram: 1 0 0 0 0 0 0 0 0 0
FullNghs:       212992 ave      212992 max      212992 min
Histogram: 1 0 0 0 0 0 0 0 0 0

Total # of neighbors = 212992
Ave neighs/atom = 416
Neighbor list builds = 0
Dangerous builds = 0
Total wall time: 0:00:05
