LAMMPS (28 Mar 2023 - Development)
KOKKOS mode is enabled (src/KOKKOS/kokkos.cpp:106)
  using 1 OpenMP thread(s) per MPI task
Lattice spacing in x,y,z = 3.615 3.615 3.615
Created orthogonal box = (0 0 0) to (14.46 14.46 14.46)
  1 by 1 by 1 MPI processor grid
Created 256 atoms
  using lattice units in orthogonal box = (0 0 0) to (14.46 14.46 14.46)
  create_atoms CPU = 0.002 seconds
Reading comb potential file ffield.comb with DATE: 2011-02-22
Pair COMB:
  generating Coulomb integral lookup table ...
  element[1] = Cu, z = 0.454784
  will not apply over-coordination correction ...
Neighbor list info ...
  update: every = 1 steps, delay = 1 steps, check = yes
  max neighbors/atom: 2000, page size: 100000
  master list distance cutoff = 12.5
  ghost atom cutoff = 12.5
  binsize = 6.25, bins = 3 3 3
  1 neighbor lists, perpetual/occasional/extra = 1 0 0
  (1) pair comb, perpetual
      attributes: full, newton on
      pair build: full/bin/atomonly
      stencil: full/bin/3d
      bin: standard
Setting up Verlet run ...
  Unit style    : metal
  Current step  : 0
  Time step     : 0.0002
Per MPI rank memory allocation (min/avg/max) = 7.662 | 7.662 | 7.662 Mbytes
   Step          Temp          TotEng         PotEng         E_vdwl         E_coul         Press          Volume           Lx             Ly             Lz             Xz      
         0   10.1          -3.5063151     -3.5076155     -3.5076155      0              27.496055      3023.4645      14.46          14.46          14.46          0            
         1   10.099643     -3.5063151     -3.5076155     -3.5076155      0              27.512983      3023.4645      14.46          14.46          14.46          0            
         2   10.098572     -3.5063151     -3.5076153     -3.5076153      0              27.563765      3023.4645      14.46          14.46          14.46          0            
         3   10.096788     -3.5063151     -3.5076151     -3.5076151      0              27.64839       3023.4645      14.46          14.46          14.46          0            
         4   10.094291     -3.5063151     -3.5076148     -3.5076148      0              27.766843      3023.4645      14.46          14.46          14.46          0            
         5   10.09108      -3.5063151     -3.5076144     -3.5076144      0              27.919101      3023.4645      14.46          14.46          14.46          0            
         6   10.087158     -3.5063151     -3.5076139     -3.5076139      0              28.105138      3023.4645      14.46          14.46          14.46          0            
         7   10.082524     -3.5063151     -3.5076133     -3.5076133      0              28.324919      3023.4645      14.46          14.46          14.46          0            
         8   10.077179     -3.5063151     -3.5076126     -3.5076126      0              28.578403      3023.4645      14.46          14.46          14.46          0            
         9   10.071123     -3.5063151     -3.5076118     -3.5076118      0              28.865545      3023.4645      14.46          14.46          14.46          0            
        10   10.06436      -3.5063151     -3.5076109     -3.5076109      0              29.186292      3023.4645      14.46          14.46          14.46          0            
Loop time of 0.0717796 on 1 procs for 10 steps with 256 atoms

Performance: 2.407 ns/day, 9.969 hours/ns, 139.315 timesteps/s, 35.665 katom-step/s
100.0% CPU use with 1 MPI tasks x 1 OpenMP threads

MPI task timing breakdown:
Section |  min time  |  avg time  |  max time  |%varavg| %total
---------------------------------------------------------------
Pair    | 0.071368   | 0.071368   | 0.071368   |   0.0 | 99.43
Neigh   | 0          | 0          | 0          |   0.0 |  0.00
Comm    | 0.00010348 | 0.00010348 | 0.00010348 |   0.0 |  0.14
Output  | 5.7991e-05 | 5.7991e-05 | 5.7991e-05 |   0.0 |  0.08
Modify  | 6.5174e-05 | 6.5174e-05 | 6.5174e-05 |   0.0 |  0.09
Other   |            | 0.0001845  |            |       |  0.26

Nlocal:            256 ave         256 max         256 min
Histogram: 1 0 0 0 0 0 0 0 0 0
Nghost:           4375 ave        4375 max        4375 min
Histogram: 1 0 0 0 0 0 0 0 0 0
Neighs:              0 ave           0 max           0 min
Histogram: 1 0 0 0 0 0 0 0 0 0
FullNghs:       172544 ave      172544 max      172544 min
Histogram: 1 0 0 0 0 0 0 0 0 0

Total # of neighbors = 172544
Ave neighs/atom = 674
Neighbor list builds = 0
Dangerous builds = 0
Total wall time: 0:00:00
