LAMMPS (28 Mar 2023 - Development)
KOKKOS mode is enabled (src/KOKKOS/kokkos.cpp:106)
  will use up to 1 GPU(s) per node
  using 1 OpenMP thread(s) per MPI task
Lattice spacing in x,y,z = 1.6795962 1.6795962 1.6795962
Created orthogonal box = (0 0 0) to (16.795962 16.795962 16.795962)
  1 by 1 by 1 MPI processor grid
Created 4000 atoms
  using lattice units in orthogonal box = (0 0 0) to (16.795962 16.795962 16.795962)
  create_atoms CPU = 0.004 seconds
Setting atom values ...
  1400 settings made for type
Balancing ...
Generated 0 of 3 mixed pair_coeff terms from geometric mixing rule
Neighbor list info ...
  update: every = 2 steps, delay = 4 steps, check = yes
  max neighbors/atom: 2000, page size: 100000
  master list distance cutoff = 5.3
  ghost atom cutoff = 5.3
  binsize = 5.3, bins = 4 4 4
  1 neighbor lists, perpetual/occasional/extra = 1 0 0
  (1) pair lj/cut/kk, perpetual
      attributes: half, newton on, kokkos_device
      pair build: half/bin/newton/kk/device
      stencil: half/bin/3d
      bin: kk/device
 rebalancing time: 0.002 seconds
  iteration count = 1
  initial/final maximal load/proc = 4000 4000
  initial/final imbalance factor  = 1 1
  x cuts: 0 1
  y cuts: 0 1
  z cuts: 0 1
Balancing ...
Generated 0 of 3 mixed pair_coeff terms from geometric mixing rule
 rebalancing time: 0.001 seconds
  iteration count = 0
  initial/final maximal load/proc = 4000 4000
  initial/final imbalance factor  = 1 1
  x cuts: 0 1
  y cuts: 0 1
  z cuts: 0 1
Balancing ...
Generated 0 of 3 mixed pair_coeff terms from geometric mixing rule
WARNING: Fixes cannot yet send exchange data in Kokkos communication, switching to classic exchange/border communication (src/KOKKOS/comm_kokkos.cpp:651)
 rebalancing time: 0.002 seconds
  iteration count = 1
  weight variable: weight
  initial/final maximal load/proc = 4000 4000
  initial/final imbalance factor  = 1 1
  x cuts: 0 1
  y cuts: 0 1
  z cuts: 0 1
Balancing ...
Generated 0 of 3 mixed pair_coeff terms from geometric mixing rule
 rebalancing time: 0.001 seconds
  iteration count = 0
  initial/final maximal load/proc = 4000 4000
  initial/final imbalance factor  = 1 1
  x cuts: 0 1
  y cuts: 0 1
  z cuts: 0 1
2600 atoms in group fast
1400 atoms in group slow
Balancing ...
Generated 0 of 3 mixed pair_coeff terms from geometric mixing rule
 rebalancing time: 0.002 seconds
  iteration count = 1
  group weights: fast=1 slow=1
  initial/final maximal load/proc = 4000 4000
  initial/final imbalance factor  = 1 1
  x cuts: 0 1
  y cuts: 0 1
  z cuts: 0 1
Generated 0 of 3 mixed pair_coeff terms from geometric mixing rule
Setting up Verlet run ...
  Unit style    : lj
  Current step  : 0
  Time step     : 0.005
Per MPI rank memory allocation (min/avg/max) = 7.931 | 7.931 | 7.931 Mbytes
   Step          Temp          E_pair         E_mol          TotEng         Press     
         0   1              inf            0              inf           -nan          
        50  -nan            0              0             -nan           -nan          
       100  -nan            0              0             -nan           -nan          
       150  -nan            0              0             -nan           -nan          
       200  -nan            0              0             -nan           -nan          
       250  -nan            0              0             -nan           -nan          
Loop time of 1.66645 on 1 procs for 250 steps with 4000 atoms

Performance: 64808.493 tau/day, 150.020 timesteps/s, 600.079 katom-step/s
100.0% CPU use with 1 MPI tasks x 1 OpenMP threads

MPI task timing breakdown:
Section |  min time  |  avg time  |  max time  |%varavg| %total
---------------------------------------------------------------
Pair    | 0.017239   | 0.017239   | 0.017239   |   0.0 |  1.03
Neigh   | 0          | 0          | 0          |   0.0 |  0.00
Comm    | 1.6374     | 1.6374     | 1.6374     |   0.0 | 98.26
Output  | 0.00015274 | 0.00015274 | 0.00015274 |   0.0 |  0.01
Modify  | 0.0067037  | 0.0067037  | 0.0067037  |   0.0 |  0.40
Other   |            | 0.00495    |            |       |  0.30

Nlocal:           4000 ave        4000 max        4000 min
Histogram: 1 0 0 0 0 0 0 0 0 0
Nghost:          28000 ave       28000 max       28000 min
Histogram: 1 0 0 0 0 0 0 0 0 0
Neighs:      7.998e+06 ave   7.998e+06 max   7.998e+06 min
Histogram: 1 0 0 0 0 0 0 0 0 0

Total # of neighbors = 7998000
Ave neighs/atom = 1999.5
Neighbor list builds = 0
Dangerous builds = 0
Total wall time: 0:00:02
