LAMMPS (28 Mar 2023 - Development)
KOKKOS mode is enabled (src/KOKKOS/kokkos.cpp:106)
  will use up to 1 GPU(s) per node
  using 1 OpenMP thread(s) per MPI task
Lattice spacing in x,y,z = 1.6795962 1.6795962 1.6795962
Created orthogonal box = (0 0 0) to (16.795962 16.795962 16.795962)
  1 by 1 by 1 MPI processor grid
Created 4000 atoms
  using lattice units in orthogonal box = (0 0 0) to (16.795962 16.795962 16.795962)
  create_atoms CPU = 0.001 seconds
Setting atom values ...
  1400 settings made for type
ERROR: Attempting to rescale a 0.0 temperature (src/velocity.cpp:719)
Last command: velocity	all create 1.0 87287
