in.data (written by ASE) 

5832 	 atoms 
1  atom types
0.0      32.129999999999995  xlo xhi
0.0      32.129999999999995  ylo yhi
0.0      32.129999999999995  zlo zhi


Atoms 

     1   1                       0                       0                       0
     2   1     0.89249999999999996     0.89249999999999996     0.89249999999999996
     3   1                       0      1.7849999999999999      1.7849999999999999
     4   1     0.89249999999999996      2.6774999999999998      2.6774999999999998
     5   1      1.7849999999999999                       0      1.7849999999999999
     6   1      2.6774999999999998     0.89249999999999996      2.6774999999999998
     7   1      1.7849999999999999      1.7849999999999999                       0
     8   1      2.6774999999999998      2.6774999999999998     0.89249999999999996
     9   1                       0                       0      3.5699999999999998
    10   1     0.89249999999999996     0.89249999999999996      4.4624999999999995
    11   1                       0      1.7849999999999999      5.3549999999999995
    12   1     0.89249999999999996      2.6774999999999998      6.2474999999999996
    13   1      1.7849999999999999                       0      5.3549999999999995
    14   1      2.6774999999999998     0.89249999999999996      6.2474999999999996
    15   1      1.7849999999999999      1.7849999999999999      3.5699999999999998
    16   1      2.6774999999999998      2.6774999999999998      4.4624999999999995
    17   1                       0                       0      7.1399999999999997
    18   1     0.89249999999999996     0.89249999999999996      8.0324999999999989
    19   1                       0      1.7849999999999999      8.9249999999999989
    20   1     0.89249999999999996      2.6774999999999998       9.817499999999999
    21   1      1.7849999999999999                       0      8.9249999999999989
    22   1      2.6774999999999998     0.89249999999999996       9.817499999999999
    23   1      1.7849999999999999      1.7849999999999999      7.1399999999999997
    24   1      2.6774999999999998      2.6774999999999998      8.0324999999999989
    25   1                       0                       0      10.709999999999999
    26   1     0.89249999999999996     0.89249999999999996      11.602499999999999
    27   1                       0      1.7849999999999999      12.494999999999999
    28   1     0.89249999999999996      2.6774999999999998      13.387499999999999
    29   1      1.7849999999999999                       0      12.494999999999999
    30   1      2.6774999999999998     0.89249999999999996      13.387499999999999
    31   1      1.7849999999999999      1.7849999999999999      10.709999999999999
    32   1      2.6774999999999998      2.6774999999999998      11.602499999999999
    33   1                       0                       0      14.279999999999999
    34   1     0.89249999999999996     0.89249999999999996      15.172499999999999
    35   1                       0      1.7849999999999999      16.064999999999998
    36   1     0.89249999999999996      2.6774999999999998                 16.9575
    37   1      1.7849999999999999                       0      16.064999999999998
    38   1      2.6774999999999998     0.89249999999999996                 16.9575
    39   1      1.7849999999999999      1.7849999999999999      14.279999999999999
    40   1      2.6774999999999998      2.6774999999999998      15.172499999999999
    41   1                       0                       0      17.849999999999998
    42   1     0.89249999999999996     0.89249999999999996      18.742499999999996
    43   1                       0      1.7849999999999999      19.634999999999998
    44   1     0.89249999999999996      2.6774999999999998      20.527499999999996
    45   1      1.7849999999999999                       0      19.634999999999998
    46   1      2.6774999999999998     0.89249999999999996      20.527499999999996
    47   1      1.7849999999999999      1.7849999999999999      17.849999999999998
    48   1      2.6774999999999998      2.6774999999999998      18.742499999999996
    49   1                       0                       0      21.419999999999998
    50   1     0.89249999999999996     0.89249999999999996      22.312499999999996
    51   1                       0      1.7849999999999999      23.204999999999998
    52   1     0.89249999999999996      2.6774999999999998      24.097499999999997
    53   1      1.7849999999999999                       0      23.204999999999998
    54   1      2.6774999999999998     0.89249999999999996      24.097499999999997
    55   1      1.7849999999999999      1.7849999999999999      21.419999999999998
    56   1      2.6774999999999998      2.6774999999999998      22.312499999999996
    57   1                       0                       0      24.989999999999998
    58   1     0.89249999999999996     0.89249999999999996      25.882499999999997
    59   1                       0      1.7849999999999999      26.774999999999999
    60   1     0.89249999999999996      2.6774999999999998      27.667499999999997
    61   1      1.7849999999999999                       0      26.774999999999999
    62   1      2.6774999999999998     0.89249999999999996      27.667499999999997
    63   1      1.7849999999999999      1.7849999999999999      24.989999999999998
    64   1      2.6774999999999998      2.6774999999999998      25.882499999999997
    65   1                       0                       0      28.559999999999999
    66   1     0.89249999999999996     0.89249999999999996      29.452499999999997
    67   1                       0      1.7849999999999999      30.344999999999999
    68   1     0.89249999999999996      2.6774999999999998      31.237499999999997
    69   1      1.7849999999999999                       0      30.344999999999999
    70   1      2.6774999999999998     0.89249999999999996      31.237499999999997
    71   1      1.7849999999999999      1.7849999999999999      28.559999999999999
    72   1      2.6774999999999998      2.6774999999999998      29.452499999999997
    73   1                       0      3.5699999999999998                       0
    74   1     0.89249999999999996      4.4624999999999995     0.89249999999999996
    75   1                       0      5.3549999999999995      1.7849999999999999
    76   1     0.89249999999999996      6.2474999999999996      2.6774999999999998
    77   1      1.7849999999999999      3.5699999999999998      1.7849999999999999
    78   1      2.6774999999999998      4.4624999999999995      2.6774999999999998
    79   1      1.7849999999999999      5.3549999999999995                       0
    80   1      2.6774999999999998      6.2474999999999996     0.89249999999999996
    81   1                       0      3.5699999999999998      3.5699999999999998
    82   1     0.89249999999999996      4.4624999999999995      4.4624999999999995
    83   1                       0      5.3549999999999995      5.3549999999999995
    84   1     0.89249999999999996      6.2474999999999996      6.2474999999999996
    85   1      1.7849999999999999      3.5699999999999998      5.3549999999999995
    86   1      2.6774999999999998      4.4624999999999995      6.2474999999999996
    87   1      1.7849999999999999      5.3549999999999995      3.5699999999999998
    88   1      2.6774999999999998      6.2474999999999996      4.4624999999999995
    89   1                       0      3.5699999999999998      7.1399999999999997
    90   1     0.89249999999999996      4.4624999999999995      8.0324999999999989
    91   1                       0      5.3549999999999995      8.9249999999999989
    92   1     0.89249999999999996      6.2474999999999996       9.817499999999999
    93   1      1.7849999999999999      3.5699999999999998      8.9249999999999989
    94   1      2.6774999999999998      4.4624999999999995       9.817499999999999
    95   1      1.7849999999999999      5.3549999999999995      7.1399999999999997
    96   1      2.6774999999999998      6.2474999999999996      8.0324999999999989
    97   1                       0      3.5699999999999998      10.709999999999999
    98   1     0.89249999999999996      4.4624999999999995      11.602499999999999
    99   1                       0      5.3549999999999995      12.494999999999999
   100   1     0.89249999999999996      6.2474999999999996      13.387499999999999
   101   1      1.7849999999999999      3.5699999999999998      12.494999999999999
   102   1      2.6774999999999998      4.4624999999999995      13.387499999999999
   103   1      1.7849999999999999      5.3549999999999995      10.709999999999999
   104   1      2.6774999999999998      6.2474999999999996      11.602499999999999
   105   1                       0      3.5699999999999998      14.279999999999999
   106   1     0.89249999999999996      4.4624999999999995      15.172499999999999
   107   1                       0      5.3549999999999995      16.064999999999998
   108   1     0.89249999999999996      6.2474999999999996                 16.9575
   109   1      1.7849999999999999      3.5699999999999998      16.064999999999998
   110   1      2.6774999999999998      4.4624999999999995                 16.9575
   111   1      1.7849999999999999      5.3549999999999995      14.279999999999999
   112   1      2.6774999999999998      6.2474999999999996      15.172499999999999
   113   1                       0      3.5699999999999998      17.849999999999998
   114   1     0.89249999999999996      4.4624999999999995      18.742499999999996
   115   1                       0      5.3549999999999995      19.634999999999998
   116   1     0.89249999999999996      6.2474999999999996      20.527499999999996
   117   1      1.7849999999999999      3.5699999999999998      19.634999999999998
   118   1      2.6774999999999998      4.4624999999999995      20.527499999999996
   119   1      1.7849999999999999      5.3549999999999995      17.849999999999998
   120   1      2.6774999999999998      6.2474999999999996      18.742499999999996
   121   1                       0      3.5699999999999998      21.419999999999998
   122   1     0.89249999999999996      4.4624999999999995      22.312499999999996
   123   1                       0      5.3549999999999995      23.204999999999998
   124   1     0.89249999999999996      6.2474999999999996      24.097499999999997
   125   1      1.7849999999999999      3.5699999999999998      23.204999999999998
   126   1      2.6774999999999998      4.4624999999999995      24.097499999999997
   127   1      1.7849999999999999      5.3549999999999995      21.419999999999998
   128   1      2.6774999999999998      6.2474999999999996      22.312499999999996
   129   1                       0      3.5699999999999998      24.989999999999998
   130   1     0.89249999999999996      4.4624999999999995      25.882499999999997
   131   1                       0      5.3549999999999995      26.774999999999999
   132   1     0.89249999999999996      6.2474999999999996      27.667499999999997
   133   1      1.7849999999999999      3.5699999999999998      26.774999999999999
   134   1      2.6774999999999998      4.4624999999999995      27.667499999999997
   135   1      1.7849999999999999      5.3549999999999995      24.989999999999998
   136   1      2.6774999999999998      6.2474999999999996      25.882499999999997
   137   1                       0      3.5699999999999998      28.559999999999999
   138   1     0.89249999999999996      4.4624999999999995      29.452499999999997
   139   1                       0      5.3549999999999995      30.344999999999999
   140   1     0.89249999999999996      6.2474999999999996      31.237499999999997
   141   1      1.7849999999999999      3.5699999999999998      30.344999999999999
   142   1      2.6774999999999998      4.4624999999999995      31.237499999999997
   143   1      1.7849999999999999      5.3549999999999995      28.559999999999999
   144   1      2.6774999999999998      6.2474999999999996      29.452499999999997
   145   1                       0      7.1399999999999997                       0
   146   1     0.89249999999999996      8.0324999999999989     0.89249999999999996
   147   1                       0      8.9249999999999989      1.7849999999999999
   148   1     0.89249999999999996       9.817499999999999      2.6774999999999998
   149   1      1.7849999999999999      7.1399999999999997      1.7849999999999999
   150   1      2.6774999999999998      8.0324999999999989      2.6774999999999998
   151   1      1.7849999999999999      8.9249999999999989                       0
   152   1      2.6774999999999998       9.817499999999999     0.89249999999999996
   153   1                       0      7.1399999999999997      3.5699999999999998
   154   1     0.89249999999999996      8.0324999999999989      4.4624999999999995
   155   1                       0      8.9249999999999989      5.3549999999999995
   156   1     0.89249999999999996       9.817499999999999      6.2474999999999996
   157   1      1.7849999999999999      7.1399999999999997      5.3549999999999995
   158   1      2.6774999999999998      8.0324999999999989      6.2474999999999996
   159   1      1.7849999999999999      8.9249999999999989      3.5699999999999998
   160   1      2.6774999999999998       9.817499999999999      4.4624999999999995
   161   1                       0      7.1399999999999997      7.1399999999999997
   162   1     0.89249999999999996      8.0324999999999989      8.0324999999999989
   163   1                       0      8.9249999999999989      8.9249999999999989
   164   1     0.89249999999999996       9.817499999999999       9.817499999999999
   165   1      1.7849999999999999      7.1399999999999997      8.9249999999999989
   166   1      2.6774999999999998      8.0324999999999989       9.817499999999999
   167   1      1.7849999999999999      8.9249999999999989      7.1399999999999997
   168   1      2.6774999999999998       9.817499999999999      8.0324999999999989
   169   1                       0      7.1399999999999997      10.709999999999999
   170   1     0.89249999999999996      8.0324999999999989      11.602499999999999
   171   1                       0      8.9249999999999989      12.494999999999999
   172   1     0.89249999999999996       9.817499999999999      13.387499999999999
   173   1      1.7849999999999999      7.1399999999999997      12.494999999999999
   174   1      2.6774999999999998      8.0324999999999989      13.387499999999999
   175   1      1.7849999999999999      8.9249999999999989      10.709999999999999
   176   1      2.6774999999999998       9.817499999999999      11.602499999999999
   177   1                       0      7.1399999999999997      14.279999999999999
   178   1     0.89249999999999996      8.0324999999999989      15.172499999999999
   179   1                       0      8.9249999999999989      16.064999999999998
   180   1     0.89249999999999996       9.817499999999999                 16.9575
   181   1      1.7849999999999999      7.1399999999999997      16.064999999999998
   182   1      2.6774999999999998      8.0324999999999989                 16.9575
   183   1      1.7849999999999999      8.9249999999999989      14.279999999999999
   184   1      2.6774999999999998       9.817499999999999      15.172499999999999
   185   1                       0      7.1399999999999997      17.849999999999998
   186   1     0.89249999999999996      8.0324999999999989      18.742499999999996
   187   1                       0      8.9249999999999989      19.634999999999998
   188   1     0.89249999999999996       9.817499999999999      20.527499999999996
   189   1      1.7849999999999999      7.1399999999999997      19.634999999999998
   190   1      2.6774999999999998      8.0324999999999989      20.527499999999996
   191   1      1.7849999999999999      8.9249999999999989      17.849999999999998
   192   1      2.6774999999999998       9.817499999999999      18.742499999999996
   193   1                       0      7.1399999999999997      21.419999999999998
   194   1     0.89249999999999996      8.0324999999999989      22.312499999999996
   195   1                       0      8.9249999999999989      23.204999999999998
   196   1     0.89249999999999996       9.817499999999999      24.097499999999997
   197   1      1.7849999999999999      7.1399999999999997      23.204999999999998
   198   1      2.6774999999999998      8.0324999999999989      24.097499999999997
   199   1      1.7849999999999999      8.9249999999999989      21.419999999999998
   200   1      2.6774999999999998       9.817499999999999      22.312499999999996
   201   1                       0      7.1399999999999997      24.989999999999998
   202   1     0.89249999999999996      8.0324999999999989      25.882499999999997
   203   1                       0      8.9249999999999989      26.774999999999999
   204   1     0.89249999999999996       9.817499999999999      27.667499999999997
   205   1      1.7849999999999999      7.1399999999999997      26.774999999999999
   206   1      2.6774999999999998      8.0324999999999989      27.667499999999997
   207   1      1.7849999999999999      8.9249999999999989      24.989999999999998
   208   1      2.6774999999999998       9.817499999999999      25.882499999999997
   209   1                       0      7.1399999999999997      28.559999999999999
   210   1     0.89249999999999996      8.0324999999999989      29.452499999999997
   211   1                       0      8.9249999999999989      30.344999999999999
   212   1     0.89249999999999996       9.817499999999999      31.237499999999997
   213   1      1.7849999999999999      7.1399999999999997      30.344999999999999
   214   1      2.6774999999999998      8.0324999999999989      31.237499999999997
   215   1      1.7849999999999999      8.9249999999999989      28.559999999999999
   216   1      2.6774999999999998       9.817499999999999      29.452499999999997
   217   1                       0      10.709999999999999                       0
   218   1     0.89249999999999996      11.602499999999999     0.89249999999999996
   219   1                       0      12.494999999999999      1.7849999999999999
   220   1     0.89249999999999996      13.387499999999999      2.6774999999999998
   221   1      1.7849999999999999      10.709999999999999      1.7849999999999999
   222   1      2.6774999999999998      11.602499999999999      2.6774999999999998
   223   1      1.7849999999999999      12.494999999999999                       0
   224   1      2.6774999999999998      13.387499999999999     0.89249999999999996
   225   1                       0      10.709999999999999      3.5699999999999998
   226   1     0.89249999999999996      11.602499999999999      4.4624999999999995
   227   1                       0      12.494999999999999      5.3549999999999995
   228   1     0.89249999999999996      13.387499999999999      6.2474999999999996
   229   1      1.7849999999999999      10.709999999999999      5.3549999999999995
   230   1      2.6774999999999998      11.602499999999999      6.2474999999999996
   231   1      1.7849999999999999      12.494999999999999      3.5699999999999998
   232   1      2.6774999999999998      13.387499999999999      4.4624999999999995
   233   1                       0      10.709999999999999      7.1399999999999997
   234   1     0.89249999999999996      11.602499999999999      8.0324999999999989
   235   1                       0      12.494999999999999      8.9249999999999989
   236   1     0.89249999999999996      13.387499999999999       9.817499999999999
   237   1      1.7849999999999999      10.709999999999999      8.9249999999999989
   238   1      2.6774999999999998      11.602499999999999       9.817499999999999
   239   1      1.7849999999999999      12.494999999999999      7.1399999999999997
   240   1      2.6774999999999998      13.387499999999999      8.0324999999999989
   241   1                       0      10.709999999999999      10.709999999999999
   242   1     0.89249999999999996      11.602499999999999      11.602499999999999
   243   1                       0      12.494999999999999      12.494999999999999
   244   1     0.89249999999999996      13.387499999999999      13.387499999999999
   245   1      1.7849999999999999      10.709999999999999      12.494999999999999
   246   1      2.6774999999999998      11.602499999999999      13.387499999999999
   247   1      1.7849999999999999      12.494999999999999      10.709999999999999
   248   1      2.6774999999999998      13.387499999999999      11.602499999999999
   249   1                       0      10.709999999999999      14.279999999999999
   250   1     0.89249999999999996      11.602499999999999      15.172499999999999
   251   1                       0      12.494999999999999      16.064999999999998
   252   1     0.89249999999999996      13.387499999999999                 16.9575
   253   1      1.7849999999999999      10.709999999999999      16.064999999999998
   254   1      2.6774999999999998      11.602499999999999                 16.9575
   255   1      1.7849999999999999      12.494999999999999      14.279999999999999
   256   1      2.6774999999999998      13.387499999999999      15.172499999999999
   257   1                       0      10.709999999999999      17.849999999999998
   258   1     0.89249999999999996      11.602499999999999      18.742499999999996
   259   1                       0      12.494999999999999      19.634999999999998
   260   1     0.89249999999999996      13.387499999999999      20.527499999999996
   261   1      1.7849999999999999      10.709999999999999      19.634999999999998
   262   1      2.6774999999999998      11.602499999999999      20.527499999999996
   263   1      1.7849999999999999      12.494999999999999      17.849999999999998
   264   1      2.6774999999999998      13.387499999999999      18.742499999999996
   265   1                       0      10.709999999999999      21.419999999999998
   266   1     0.89249999999999996      11.602499999999999      22.312499999999996
   267   1                       0      12.494999999999999      23.204999999999998
   268   1     0.89249999999999996      13.387499999999999      24.097499999999997
   269   1      1.7849999999999999      10.709999999999999      23.204999999999998
   270   1      2.6774999999999998      11.602499999999999      24.097499999999997
   271   1      1.7849999999999999      12.494999999999999      21.419999999999998
   272   1      2.6774999999999998      13.387499999999999      22.312499999999996
   273   1                       0      10.709999999999999      24.989999999999998
   274   1     0.89249999999999996      11.602499999999999      25.882499999999997
   275   1                       0      12.494999999999999      26.774999999999999
   276   1     0.89249999999999996      13.387499999999999      27.667499999999997
   277   1      1.7849999999999999      10.709999999999999      26.774999999999999
   278   1      2.6774999999999998      11.602499999999999      27.667499999999997
   279   1      1.7849999999999999      12.494999999999999      24.989999999999998
   280   1      2.6774999999999998      13.387499999999999      25.882499999999997
   281   1                       0      10.709999999999999      28.559999999999999
   282   1     0.89249999999999996      11.602499999999999      29.452499999999997
   283   1                       0      12.494999999999999      30.344999999999999
   284   1     0.89249999999999996      13.387499999999999      31.237499999999997
   285   1      1.7849999999999999      10.709999999999999      30.344999999999999
   286   1      2.6774999999999998      11.602499999999999      31.237499999999997
   287   1      1.7849999999999999      12.494999999999999      28.559999999999999
   288   1      2.6774999999999998      13.387499999999999      29.452499999999997
   289   1                       0      14.279999999999999                       0
   290   1     0.89249999999999996      15.172499999999999     0.89249999999999996
   291   1                       0      16.064999999999998      1.7849999999999999
   292   1     0.89249999999999996                 16.9575      2.6774999999999998
   293   1      1.7849999999999999      14.279999999999999      1.7849999999999999
   294   1      2.6774999999999998      15.172499999999999      2.6774999999999998
   295   1      1.7849999999999999      16.064999999999998                       0
   296   1      2.6774999999999998                 16.9575     0.89249999999999996
   297   1                       0      14.279999999999999      3.5699999999999998
   298   1     0.89249999999999996      15.172499999999999      4.4624999999999995
   299   1                       0      16.064999999999998      5.3549999999999995
   300   1     0.89249999999999996                 16.9575      6.2474999999999996
   301   1      1.7849999999999999      14.279999999999999      5.3549999999999995
   302   1      2.6774999999999998      15.172499999999999      6.2474999999999996
   303   1      1.7849999999999999      16.064999999999998      3.5699999999999998
   304   1      2.6774999999999998                 16.9575      4.4624999999999995
   305   1                       0      14.279999999999999      7.1399999999999997
   306   1     0.89249999999999996      15.172499999999999      8.0324999999999989
   307   1                       0      16.064999999999998      8.9249999999999989
   308   1     0.89249999999999996                 16.9575       9.817499999999999
   309   1      1.7849999999999999      14.279999999999999      8.9249999999999989
   310   1      2.6774999999999998      15.172499999999999       9.817499999999999
   311   1      1.7849999999999999      16.064999999999998      7.1399999999999997
   312   1      2.6774999999999998                 16.9575      8.0324999999999989
   313   1                       0      14.279999999999999      10.709999999999999
   314   1     0.89249999999999996      15.172499999999999      11.602499999999999
   315   1                       0      16.064999999999998      12.494999999999999
   316   1     0.89249999999999996                 16.9575      13.387499999999999
   317   1      1.7849999999999999      14.279999999999999      12.494999999999999
   318   1      2.6774999999999998      15.172499999999999      13.387499999999999
   319   1      1.7849999999999999      16.064999999999998      10.709999999999999
   320   1      2.6774999999999998                 16.9575      11.602499999999999
   321   1                       0      14.279999999999999      14.279999999999999
   322   1     0.89249999999999996      15.172499999999999      15.172499999999999
   323   1                       0      16.064999999999998      16.064999999999998
   324   1     0.89249999999999996                 16.9575                 16.9575
   325   1      1.7849999999999999      14.279999999999999      16.064999999999998
   326   1      2.6774999999999998      15.172499999999999                 16.9575
   327   1      1.7849999999999999      16.064999999999998      14.279999999999999
   328   1      2.6774999999999998                 16.9575      15.172499999999999
   329   1                       0      14.279999999999999      17.849999999999998
   330   1     0.89249999999999996      15.172499999999999      18.742499999999996
   331   1                       0      16.064999999999998      19.634999999999998
   332   1     0.89249999999999996                 16.9575      20.527499999999996
   333   1      1.7849999999999999      14.279999999999999      19.634999999999998
   334   1      2.6774999999999998      15.172499999999999      20.527499999999996
   335   1      1.7849999999999999      16.064999999999998      17.849999999999998
   336   1      2.6774999999999998                 16.9575      18.742499999999996
   337   1                       0      14.279999999999999      21.419999999999998
   338   1     0.89249999999999996      15.172499999999999      22.312499999999996
   339   1                       0      16.064999999999998      23.204999999999998
   340   1     0.89249999999999996                 16.9575      24.097499999999997
   341   1      1.7849999999999999      14.279999999999999      23.204999999999998
   342   1      2.6774999999999998      15.172499999999999      24.097499999999997
   343   1      1.7849999999999999      16.064999999999998      21.419999999999998
   344   1      2.6774999999999998                 16.9575      22.312499999999996
   345   1                       0      14.279999999999999      24.989999999999998
   346   1     0.89249999999999996      15.172499999999999      25.882499999999997
   347   1                       0      16.064999999999998      26.774999999999999
   348   1     0.89249999999999996                 16.9575      27.667499999999997
   349   1      1.7849999999999999      14.279999999999999      26.774999999999999
   350   1      2.6774999999999998      15.172499999999999      27.667499999999997
   351   1      1.7849999999999999      16.064999999999998      24.989999999999998
   352   1      2.6774999999999998                 16.9575      25.882499999999997
   353   1                       0      14.279999999999999      28.559999999999999
   354   1     0.89249999999999996      15.172499999999999      29.452499999999997
   355   1                       0      16.064999999999998      30.344999999999999
   356   1     0.89249999999999996                 16.9575      31.237499999999997
   357   1      1.7849999999999999      14.279999999999999      30.344999999999999
   358   1      2.6774999999999998      15.172499999999999      31.237499999999997
   359   1      1.7849999999999999      16.064999999999998      28.559999999999999