LAMMPS (28 Mar 2023 - Development)
KOKKOS mode is enabled (src/KOKKOS/kokkos.cpp:106)
  will use up to 1 GPU(s) per node
  using 1 OpenMP thread(s) per MPI task
Lattice spacing in x,y,z = 1.8325207 1.8325207 1.8325207
Created orthogonal box = (0 0 0) to (18.325207 18.325207 18.325207)
  1 by 1 by 1 MPI processor grid
Created 4000 atoms
  using lattice units in orthogonal box = (0 0 0) to (18.325207 18.325207 18.325207)
  create_atoms CPU = 0.001 seconds

CITE-CITE-CITE-CITE-CITE-CITE-CITE-CITE-CITE-CITE-CITE-CITE-CITE

Your simulation uses code contributions which should be cited:
- ATM package: doi:10.1063/1.4704930
The log file lists these citations in BibTeX format.

CITE-CITE-CITE-CITE-CITE-CITE-CITE-CITE-CITE-CITE-CITE-CITE-CITE

Neighbor list info ...
  update: every = 1 steps, delay = 0 steps, check = yes
  max neighbors/atom: 2000, page size: 100000
  master list distance cutoff = 4.8
  ghost atom cutoff = 4.8
  binsize = 4.8, bins = 4 4 4
  2 neighbor lists, perpetual/occasional/extra = 2 0 0
  (1) pair lj/cut, perpetual
      attributes: half, newton on, kokkos_device
      pair build: half/bin/newton/kk/device
      stencil: half/bin/3d
      bin: kk/device
  (2) pair atm, perpetual
      attributes: full, newton on
      pair build: full/bin/atomonly
      stencil: full/bin/3d
      bin: standard
Setting up Verlet run ...
  Unit style    : lj
  Current step  : 0
  Time step     : 0.002
Per MPI rank memory allocation (min/avg/max) = 9.346 | 9.346 | 9.346 Mbytes
   Step          Temp          E_pair         E_mol          TotEng         Press     
         0   1.033         -4.8404387      0             -3.291326       0.91257535   
         5   1.0338316     -4.8402262      0             -3.2898665     -4.3623532    
        10   1.0360165     -4.8425902      0             -3.288954      -4.3289143    
        15   1.0385822     -4.8459953      0             -3.2885114     -4.2707172    
        20   1.0398145     -4.8478939      0             -3.2885621     -4.1812841    
        25   1.0371073     -4.8447244      0             -3.2894523     -4.0511264    
Loop time of 8.951 on 1 procs for 25 steps with 4000 atoms

Performance: 482.628 tau/day, 2.793 timesteps/s, 11.172 katom-step/s
100.0% CPU use with 1 MPI tasks x 1 OpenMP threads

MPI task timing breakdown:
Section |  min time  |  avg time  |  max time  |%varavg| %total
---------------------------------------------------------------
Pair    | 8.946      | 8.946      | 8.946      |   0.0 | 99.94
Neigh   | 0          | 0          | 0          |   0.0 |  0.00
Comm    | 0.00091255 | 0.00091255 | 0.00091255 |   0.0 |  0.01
Output  | 0.00020102 | 0.00020102 | 0.00020102 |   0.0 |  0.00
Modify  | 0.0024377  | 0.0024377  | 0.0024377  |   0.0 |  0.03
Other   |            | 0.001438   |            |       |  0.02

Nlocal:           4000 ave        4000 max        4000 min
Histogram: 1 0 0 0 0 0 0 0 0 0
Nghost:          10895 ave       10895 max       10895 min
Histogram: 1 0 0 0 0 0 0 0 0 0
Neighs:         640000 ave      640000 max      640000 min
Histogram: 1 0 0 0 0 0 0 0 0 0
FullNghs:     1.28e+06 ave    1.28e+06 max    1.28e+06 min
Histogram: 1 0 0 0 0 0 0 0 0 0

Total # of neighbors = 1280000
Ave neighs/atom = 320
Neighbor list builds = 0
Dangerous builds = 0
Total wall time: 0:00:09
