LAMMPS (28 Mar 2023 - Development)
KOKKOS mode is enabled (src/KOKKOS/kokkos.cpp:106)
  using 1 OpenMP thread(s) per MPI task
Lattice spacing in x,y,z = 1.8325207 1.8325207 1.8325207
Created orthogonal box = (0 0 0) to (18.325207 18.325207 18.325207)
  1 by 1 by 1 MPI processor grid
Created 4000 atoms
  using lattice units in orthogonal box = (0 0 0) to (18.325207 18.325207 18.325207)
  create_atoms CPU = 0.002 seconds

CITE-CITE-CITE-CITE-CITE-CITE-CITE-CITE-CITE-CITE-CITE-CITE-CITE

Your simulation uses code contributions which should be cited:
- ATM package: doi:10.1063/1.4704930
The log file lists these citations in BibTeX format.

CITE-CITE-CITE-CITE-CITE-CITE-CITE-CITE-CITE-CITE-CITE-CITE-CITE

Neighbor list info ...
  update: every = 1 steps, delay = 0 steps, check = yes
  max neighbors/atom: 2000, page size: 100000
  master list distance cutoff = 4.8
  ghost atom cutoff = 4.8
  binsize = 2.4, bins = 8 8 8
  2 neighbor lists, perpetual/occasional/extra = 2 0 0
  (1) pair lj/cut, perpetual
      attributes: half, newton on, kokkos_device
      pair build: half/bin/newton/kk/device
      stencil: half/bin/3d
      bin: kk/device
  (2) pair atm, perpetual
      attributes: full, newton on
      pair build: full/bin/atomonly
      stencil: full/bin/3d
      bin: standard
Setting up Verlet run ...
  Unit style    : lj
  Current step  : 0
  Time step     : 0.002
Per MPI rank memory allocation (min/avg/max) = 9.357 | 9.357 | 9.357 Mbytes
   Step          Temp          E_pair         E_mol          TotEng         Press     
         0   1.033         -4.8404387      0             -3.291326      -4.1332095    
         5   1.0337247     -4.8402263      0             -3.290027      -4.1207962    
        10   1.0355935     -4.8425889      0             -3.2895869     -4.0870158    
        15   1.0376519     -4.84599        0             -3.2899013     -4.0278711    
        20   1.0382257     -4.8478854      0             -3.2909361     -3.9368052    
        25   1.0347886     -4.84473        0             -3.2929351     -3.8044469    
Loop time of 8.8655 on 1 procs for 25 steps with 4000 atoms

Performance: 487.282 tau/day, 2.820 timesteps/s, 11.280 katom-step/s
100.0% CPU use with 1 MPI tasks x 1 OpenMP threads

MPI task timing breakdown:
Section |  min time  |  avg time  |  max time  |%varavg| %total
---------------------------------------------------------------
Pair    | 8.8615     | 8.8615     | 8.8615     |   0.0 | 99.95
Neigh   | 0          | 0          | 0          |   0.0 |  0.00
Comm    | 0.0008391  | 0.0008391  | 0.0008391  |   0.0 |  0.01
Output  | 0.00011776 | 0.00011776 | 0.00011776 |   0.0 |  0.00
Modify  | 0.0014663  | 0.0014663  | 0.0014663  |   0.0 |  0.02
Other   |            | 0.001594   |            |       |  0.02

Nlocal:           4000 ave        4000 max        4000 min
Histogram: 1 0 0 0 0 0 0 0 0 0
Nghost:          10895 ave       10895 max       10895 min
Histogram: 1 0 0 0 0 0 0 0 0 0
Neighs:         640000 ave      640000 max      640000 min
Histogram: 1 0 0 0 0 0 0 0 0 0
FullNghs:     1.28e+06 ave    1.28e+06 max    1.28e+06 min
Histogram: 1 0 0 0 0 0 0 0 0 0

Total # of neighbors = 1280000
Ave neighs/atom = 320
Neighbor list builds = 0
Dangerous builds = 0
Total wall time: 0:00:09

