LAMMPS (3 Nov 2022)
units 		real
atom_style      charge

lattice 	bcc 2.87
Lattice spacing in x,y,z = 2.87 2.87 2.87
region		bulto block -5 5 -5 5 -5 5
create_box      1 bulto
Created orthogonal box = (-14.35 -14.35 -14.35) to (14.35 14.35 14.35)
  2 by 4 by 4 MPI processor grid
create_atoms	1 region bulto
Created 2000 atoms
  using lattice units in orthogonal box = (-14.35 -14.35 -14.35) to (14.35 14.35 14.35)
  create_atoms CPU = 0.001 seconds

mass * 55.845
# Choose potential
pair_style      reax/c NULL checkqeq no
pair_coeff      * * CHOFeAlNiCuSCr_v3.ff Fe
WARNING: Changed valency_val to valency_boc for X (../reaxff_ffield.cpp:296)


#JR: Charge minimization
#fix             qeq all qeq/reax 1 0.0 10.0 1.0e-6 reax/c

neighbor   3.5 bin
neigh_modify    every 2 delay 4 check yes page 100000

velocity        all create 300.0 4928459 rot yes dist gaussian

compute         msd all msd

compute         Stress all stress/atom NULL virial
compute         pe all pe/atom
compute         ke all ke/atom



timestep        1
#fix nve      all nve
fix 		npt all nph iso 0 0 1000
#fix          press  all press/berendsen iso 0 0 1000


thermo          100
thermo_style custom step temp pe ke etotal vol press c_msd[4]
dump  mydump all custom 1000 dump.coordenadas id type q x y z vx vy vz c_pe c_ke c_Stress[1] c_Stress[2] c_Stress[3]

fix 		1 all langevin  300 1500 100 29345 zero yes
run 10000

CITE-CITE-CITE-CITE-CITE-CITE-CITE-CITE-CITE-CITE-CITE-CITE-CITE

Your simulation uses code contributions which should be cited:

- pair reaxff command: doi:10.1016/j.parco.2011.08.005

@Article{Aktulga12,
 author = {H. M. Aktulga and J. C. Fogarty and S. A. Pandit and A. Y. Grama},
 title = {Parallel Reactive Molecular Dynamics: {N}umerical Methods and Algorithmic Techniques},
 journal = {Parallel Computing},
 year =    2012,
 volume =  38,
 number =  {4--5},
 pages =   {245--259}
}

CITE-CITE-CITE-CITE-CITE-CITE-CITE-CITE-CITE-CITE-CITE-CITE-CITE

Neighbor list info ...
  update: every = 2 steps, delay = 4 steps, check = yes
  max neighbors/atom: 2000, page size: 100000
  master list distance cutoff = 13.5
  ghost atom cutoff = 13.5
  binsize = 6.75, bins = 5 5 5
  1 neighbor lists, perpetual/occasional/extra = 1 0 0
  (1) pair reax/c, perpetual
      attributes: half, newton off, ghost
      pair build: half/bin/newtoff/ghost
      stencil: full/ghost/bin/3d
      bin: standard
Per MPI rank memory allocation (min/avg/max) = 71.5 | 71.5 | 71.5 Mbytes
   Step          Temp          PotEng         KinEng         TotEng         Volume         Press         c_msd[4]   
         0   300           -203952.83      1787.5918     -202165.23      23639.903     -45541.269      0            
       100   255.47228     -202651.76      1522.2672     -201129.49      22634.674      22965.148      0.052596044  
       200   294.58668     -202389.35      1755.3358     -200634.01      23089.018     -8336.4237      0.023902821  
       300   320.03306     -202255.15      1906.9615     -200348.18      22948.28       1249.3739      0.03353987   
       400   327.09518     -202166.59      1949.0422     -200217.55      22935.818      2089.1455      0.033934817  
       500   355.97975     -202097.23      2121.1549     -199976.08      23015.122     -3094.9438      0.029234985  
       600   354.86185     -202039.92      2114.4937     -199925.42      22925.284      3043.8325      0.03512247   
       700   367.75108     -201988.45      2191.296      -199797.16      23006.897     -2169.7654      0.030993223  
       800   388.01446     -201867.86      2312.0382     -199555.82      22946.46       1788.5709      0.035829457  
       900   388.83161     -201720.81      2316.9073     -199403.9       22989.801     -1136.5825      0.034293739  
      1000   407.70849     -201651.94      2429.3878     -199222.55      22974.927      137.46481      0.034906183  
      1100   429.48294     -201710.95      2559.1339     -199151.82      22973.352      494.41289      0.034332141  
      1200   426.49817     -201535.83      2541.3487     -198994.48      22988.143     -586.68537      0.033752069  
      1300   444.20365     -201538.92      2646.8493     -198892.07      22970.407      784.53072      0.035688235  
      1400   449.35837     -201499.1       2677.5644     -198821.54      22991.811     -633.77326      0.036329271  
      1500   470.07267     -201363.29      2800.9935     -198562.3       22972.087      630.75171      0.038647164  
      1600   475.79715     -201298.59      2835.1036     -198463.48      22995.035     -1044.7175      0.036915987  
      1700   479.40146     -201248.34      2856.5804     -198391.76      22973.078      557.78032      0.037889704  
      1800   491.58876     -201154.22      2929.2001     -198225.02      22991.174     -270.39028      0.036577185  
      1900   523.62192     -201056         3120.0742     -197935.93      22991.615      42.539346      0.038574044  
      2000   529.93613     -200959.36      3157.6983     -197801.66      22985.503      262.39858      0.039728467  
      2100   533.52832     -200923.42      3179.1028     -197744.31      23000.295     -207.04617      0.037619188  
      2200   567.81742     -200846.15      3383.4192     -197462.73      22984.734      837.77885      0.040603955  
      2300   564.70629     -200735.31      3364.8811     -197370.43      23001.954     -326.48247      0.040299111  
      2400   572.15024     -200682.87      3409.2369     -197273.63      22982.452      1048.1486      0.040758103  
      2500   581.09549     -200647.21      3462.5384     -197184.67      23001.798     -272.0498       0.041173734  
      2600   594.44183     -200530.66      3542.0645     -196988.6       22992.482      275.08524      0.041658354  
      2700   618.19521     -200444.03      3683.6023     -196760.42      23007.62      -600.91228      0.041663017  
      2800   637.44109     -200286.46      3798.2815     -196488.17      23004.231      19.095555      0.044296601  
      2900   658.07316     -200203.24      3921.2206     -196282.02      23007.316      71.670996      0.047157978  
      3000   661.75897     -200148.16      3943.183      -196204.98      23014.019     -115.63088      0.043755484  
      3100   671.84693     -200189.83      4003.2935     -196186.54      23010.032      179.44477      0.041195883  
      3200   675.26883     -199995.84      4023.6834     -195972.16      23011.086      219.58285      0.043185412  
      3300   694.52166     -199981.84      4138.4041     -195843.44      23014.034     -162.3381       0.045105206  
      3400   696.51645     -199944.66      4150.2903     -195794.37      23022.231     -219.5675       0.044409239  
      3500   700.10842     -199692.29      4171.6935     -195520.6       23003.958      1153.7574      0.046052685  
      3600   728.5606      -199753.91      4341.2298     -195412.68      23039.624     -1514.4524      0.043576527  
      3700   740.19545     -199770.03      4410.5577     -195359.47      22998.432      1258.7584      0.043611327  
      3800   740.26669     -199567.7       4410.9822     -195156.71      23038.079     -842.8907       0.045773687  
      3900   744.22664     -199547.43      4434.5781     -195112.85      23015.77       364.08655      0.047279908  
      4000   748.40693     -199593.4       4459.4869     -195133.91      23026.446     -83.102712      0.044962857  
      4100   772.94416     -199399.44      4605.6954     -194793.74      23024.888     -107.33264      0.047922366  
      4200   781.23487     -199289.17      4655.0968     -194634.07      23018.72       450.95771      0.048753214  
      4300   831.90612     -199371.73      4957.0285     -194414.71      23044.273     -534.268        0.048282435  
      4400   833.89708     -199162.88      4968.8919     -194193.99      23009.53       1714.725       0.053783891  
      4500   823.34682     -198904.84      4906.0267     -193998.82      23060.313     -1501.5419      0.051536043  
      4600   866.92517     -199030.38      5165.6944     -193864.69      23025.798      1091.9569      0.051155533  
      4700   845.88881     -198972.61      5040.3463     -193932.26      23037.092     -231.02256      0.05101549   
      4800   855.84095     -198780.24      5099.6475     -193680.59      23043.245     -392.61982      0.05110072   
      4900   854.67783     -198838.34      5092.7169     -193745.62      23021.057      1160.3499      0.052293674  
      5000   846.24195     -198808.36      5042.4505     -193765.91      23050.679     -1269.218       0.05231597   
      5100   866.6178      -198654.11      5163.8629     -193490.25      23031.121      107.97622      0.054550017  
      5200   904.37858     -198515.64      5388.8658     -193126.77      23049.562     -444.38021      0.053400538  
      5300   918.28562     -198413.18      5471.7328     -192941.44      23039.824      842.4423       0.052652485  
      5400   934.15238     -198531.21      5566.277      -192964.93      23051.213     -348.46143      0.054358382  
      5500   971.38567     -198377.55      5788.1368     -192589.41      23047.912      797.20696      0.055297097  
      5600   963.09638     -198143.97      5738.7439     -192405.22      23044.585      1074.1914      0.055967069  
      5700   977.0186      -198107.98      5821.7014     -192286.28      23074.894     -960.4457       0.05287355   
      5800   996.57267     -198067.53      5938.217      -192129.32      23039.533      1231.4241      0.053353302  
      5900   995.52675     -198008.43      5931.9848     -192076.44      23078.834     -1318.3569      0.054380526  
      6000   1022.5733     -197836.9       6093.1453     -191743.75      23063.771     -31.867969      0.058596601  
      6100   1036.3748     -197733.93      6175.3835     -191558.55      23074.7       -519.71417      0.057459001  
      6200   1049.5903     -197658.74      6254.1299     -191404.61      23057.049      1052.2986      0.057812676  
      6300   1035.879      -197652.79      6172.4294     -191480.36      23079.612     -899.23022      0.057961815  
      6400   1054.7174     -197400.92      6284.6806     -191116.24      23070.354     -419.72303      0.060091172  
      6500   1099.0908     -197419.41      6549.0858     -190870.33      23070.994      808.50419      0.060267208  
      6600   1088.7007     -197399.19      6487.1747     -190912.01      23075.585      96.821009      0.062402875  
      6700   1086.4874     -197527.53      6473.9864     -191053.54      23075.531     -289.99966      0.061557962  
      6800   1063.4431     -197342.19      6336.674      -191005.51      23081.226      70.273679      0.060440612  
      6900   1143.5759     -197124.11      6814.1564     -190309.95      23067.109      1294.962       0.061837801  
      7000   1152.453      -197140.83      6867.0517     -190273.78      23079.95      -101.30984      0.061417618  
      7100   1148.2323     -197174.28      6841.9021     -190332.38      23080.427      64.542806      0.062603503  
      7200   1123.1468     -196909.44      6692.4268     -190217.02      23096.193     -1141.4783      0.068411083  
      7300   1149.5956     -196935.23      6850.0254     -190085.2       23080.136      418.91439      0.065883213  
      7400   1201.6263     -196944         7160.0575     -189783.94      23109.986     -227.63818      0.061323468  
      7500   1225.9613     -196620.81      7305.0609     -189315.74      23080.534      620.84887      0.066049995  
      7600   1214.8938     -196472.81      7239.1138     -189233.7       23119.991     -789.61052      0.064673835  
      7700   1259.3805     -196215.62      7504.1939     -188711.42      23095.53       1258.4424      0.068525482  
      7800   1280.2387     -196556.13      7628.4804     -188927.65      23131.746     -1115.6061      0.068175316  
      7900   1202.7068     -196340.49      7166.4958     -189174         23091.282      975.3473       0.067814309  
      8000   1232.0324     -196109.35      7341.2367     -188768.11      23112.314      186.32729      0.068420888  
      8100   1271.7425     -196343.28      7577.8551     -188765.42      23117.583     -70.205157      0.062039566  
      8200   1273.5873     -196253.96      7588.8475     -188665.11      23077.466      1851.0009      0.068691191  
      8300   1280.5415     -195966.69      7630.2849     -188336.4       23174.628     -3189.5901      0.067465001  
      8400   1277.195      -195834.96      7610.3445     -188224.62      23069.251      3092.1488      0.073534654  
      8500   1313.0222     -196010.68      7823.8255     -188186.85      23160.849     -2164.3743      0.06778746   
      8600   1328.3404     -196026.32      7915.1014     -188111.22      23081.725      2630.8207      0.072004915  
      8700   1336.347      -195903.83      7962.81       -187941.02      23142.847     -971.82149      0.066469948  
      8800   1335.3663     -195752.1       7956.9662     -187795.13      23107.894      1472.0512      0.06878647   
      8900   1325.3484     -195734.33      7897.2728     -187837.06      23136.893     -775.34663      0.07089367   
      9000   1358.1055     -195341.73      8092.4608     -187249.27      23134.415     -153.94275      0.073384104  
      9100   1390.8242     -195278.26      8287.4196     -186990.84      23101.492      1686.6791      0.076015113  
      9200   1426.5178     -195162.52      8500.1047     -186662.41      23161.252     -1976.8667      0.078971275  
      9300   1363.6735     -195422         8125.6383     -187296.36      23098.41       1974.4927      0.080858994  
      9400   1412.0099     -195334.83      8413.6578     -186921.17      23203.849     -3482.2911      0.070490069  
      9500   1399.572      -195059.34      8339.5445     -186719.79      23043.328      4693.7859      0.080005511  
      9600   1474.6755     -194762.29      8787.0596     -185975.23      23272.225     -6184.0115      0.073357403  
      9700   1431.8888     -195155.6       8532.109      -186623.5       23025.059      7258.0161      0.085243779  
      9800   1435.8903     -194950.95      8555.9524     -186395         23256.683     -5910.8492      0.073050002  
      9900   1469.9979     -194821.22      8759.1875     -186062.03      23055.282      5596.5489      0.081012719  
     10000   1447.1178     -194611.04      8622.8528     -185988.18      23217.071     -4182.2865      0.081372681  
Loop time of 834.938 on 32 procs for 10000 steps with 2000 atoms

Performance: 1.035 ns/day, 23.193 hours/ns, 11.977 timesteps/s, 23.954 katom-step/s
99.8% CPU use with 32 MPI tasks x no OpenMP threads

MPI task timing breakdown:
Section |  min time  |  avg time  |  max time  |%varavg| %total
---------------------------------------------------------------
Pair    | 775.9      | 789.37     | 803.78     |  25.5 | 94.54
Neigh   | 0          | 0          | 0          |   0.0 |  0.00
Comm    | 29.963     | 44.379     | 57.865     | 107.7 |  5.32
Output  | 0.025338   | 0.025465   | 0.027168   |   0.2 |  0.00
Modify  | 0.58026    | 0.61696    | 0.65748    |   2.8 |  0.07
Other   |            | 0.5433     |            |       |  0.07

Nlocal:           62.5 ave          65 max          60 min
Histogram: 16 0 0 0 0 0 0 0 0 16
Nghost:         4113.5 ave        4116 max        4111 min
Histogram: 16 0 0 0 0 0 0 0 0 16
Neighs:          53847 ave       55924 max       51770 min
Histogram: 16 0 0 0 0 0 0 0 0 16

Total # of neighbors = 1723104
Ave neighs/atom = 861.552
Neighbor list builds = 0
Dangerous builds = 0


label loop_heating
variable i loop 151 260
variable Temp equal $i*10
variable Temp equal 151*10
fix 		1 all langevin ${Temp} ${Temp} 100 29345 zero yes
fix 		1 all langevin 1510 ${Temp} 100 29345 zero yes
fix 		1 all langevin 1510 1510 100 29345 zero yes
run 2000
Per MPI rank memory allocation (min/avg/max) = 81.8 | 81.89 | 81.96 Mbytes
   Step          Temp          PotEng         KinEng         TotEng         Volume         Press         c_msd[4]   
     10000   1447.1178     -194611.04      8622.8528     -185988.18      23217.071     -4182.2865      0.081372681  
     10100   1477.4835     -194463.01      8803.7909     -185659.22      23111.436      2219.4946      0.087823907  
     10200   1510.7915     -194408.36      9002.2617     -185406.09      23192.177     -1699.0442      0.079758437  
     10300   1509.4984     -194350.36      8994.5562     -185355.81      23150.438      872.77652      0.081546379  
     10400   1478.5818     -194456.25      8810.3358     -185645.91      23143.807      233.61514      0.082625645  
     10500   1476.5696     -194409.04      8798.3457     -185610.69      23150.066      363.89252      0.082382313  
     10600   1497.7037     -194502.94      8924.2762     -185578.66      23145.725      1419.7067      0.082083138  
     10700   1528.8248     -194438.43      9109.7156     -185328.71      23178.312     -951.52463      0.080527109  
     10800   1486.0354     -194538.62      8854.7487     -185683.87      23132.416      1177.4578      0.084144373  
     10900   1524.7319     -194516.65      9085.3272     -185431.32      23171.322     -37.962589      0.082348414  
     11000   1493.699      -194572.93      8900.4135     -185672.51      23143.947      1001.4509      0.07976552   
     11100   1478.8741     -194514.04      8812.0776     -185701.96      23165.516     -425.29624      0.080496908  
     11200   1504.4644     -194325.37      8964.5607     -185360.81      23163.354      283.46618      0.077890111  
     11300   1496.8346     -194829.41      8919.0977     -185910.31      23148.207      887.54802      0.075694097  
     11400   1452.7078     -194835.56      8656.1617     -186179.4       23170.915     -1046.0907      0.076956096  
     11500   1507.4444     -194615.43      8982.3172     -185633.11      23134.741      1745.5366      0.080234985  
     11600   1490.0763     -194388.1       8878.8272     -185509.27      23187.571     -1435.0053      0.080113257  
     11700   1556.9199     -194606.24      9277.124      -185329.12      23140.488      1941.3983      0.081122439  
     11800   1474.8068     -194267.42      8787.842      -185479.57      23195.619     -2345.6367      0.079678004  
     11900   1450.8927     -194644.19      8645.3462     -185998.85      23122.39       800.4259       0.082884767  
     12000   1459.914      -194848.03      8699.1007     -186148.93      23164.447     -1330.3549      0.07551917   
Loop time of 172.24 on 32 procs for 2000 steps with 2000 atoms

Performance: 1.003 ns/day, 23.922 hours/ns, 11.612 timesteps/s, 23.223 katom-step/s
99.8% CPU use with 32 MPI tasks x no OpenMP threads

MPI task timing breakdown:
Section |  min time  |  avg time  |  max time  |%varavg| %total
---------------------------------------------------------------
Pair    | 160.33     | 164.22     | 166.58     |  12.1 | 95.34
Neigh   | 0          | 0          | 0          |   0.0 |  0.00
Comm    | 5.4238     | 7.789      | 11.682     |  55.8 |  4.52
Output  | 0.0051292  | 0.0051528  | 0.0054454  |   0.1 |  0.00
Modify  | 0.11749    | 0.12388    | 0.13089    |   1.0 |  0.07
Other   |            | 0.1033     |            |       |  0.06

Nlocal:           62.5 ave          71 max          56 min
Histogram: 4 2 4 3 4 6 5 1 1 2
Nghost:         4113.5 ave        4120 max        4105 min
Histogram: 2 0 2 1 10 3 4 2 4 4
Neighs:        54229.2 ave       61490 max       48731 min
Histogram: 4 2 4 3 4 9 2 2 0 2

Total # of neighbors = 1735334
Ave neighs/atom = 867.667
Neighbor list builds = 0
Dangerous builds = 0
next i
jump SELF loop_heating
variable i loop 151 260
variable Temp equal $i*10
variable Temp equal 152*10
fix 		1 all langevin ${Temp} ${Temp} 100 29345 zero yes
fix 		1 all langevin 1520 ${Temp} 100 29345 zero yes
fix 		1 all langevin 1520 1520 100 29345 zero yes
run 2000
Per MPI rank memory allocation (min/avg/max) = 81.47 | 81.59 | 81.94 Mbytes
   Step          Temp          PotEng         KinEng         TotEng         Volume         Press         c_msd[4]   
     12000   1459.914      -194848.03      8699.1007     -186148.93      23164.447     -1330.3549      0.07551917   
     12100   1512.1696     -194770.84      9010.4735     -185760.37      23134.623      1546.7181      0.077935629  
     12200   1490.6051     -194601.01      8881.9782     -185719.03      23146.877     -78.033116      0.079344437  
     12300   1487.8223     -194597.17      8865.3965     -185731.78      23179.216     -1052.2473      0.078362595  
     12400   1462.0831     -194448.24      8712.0257     -185736.22      23164.864     -10.305305      0.080443679  
     12500   1498.8564     -194318.83      8931.1445     -185387.69      23194.774     -1621.413       0.078381443  
     12600   1541.084      -194483.16      9182.7635     -185300.4       23130.347      2771.5321      0.078958465  
     12700   1549.8479     -194174.89      9234.9847     -184939.9       23195.515     -844.21928      0.082302646  
     12800   1581.0928     -194433.74      9421.1617     -185012.58      23145.6        1856.5932      0.079901443  
     12900   1539.5122     -194207.11      9173.398      -185033.72      23187.641     -960.56483      0.084202607  
     13000   1510.7344     -194091.46      9001.9216     -185089.53      23156.103      448.501        0.084071749  
     13100   1487.636      -194128.54      8864.2862     -185264.25      23184.459     -1306.4496      0.080058856  
     13200   1505.1061     -194459.09      8968.3844     -185490.7       23142.982      1608.0262      0.08074111   
     13300   1552.7322     -194450.1       9252.1711     -185197.93      23188.222     -1246.3882      0.081411492  
     13400   1506.4015     -194251.15      8976.1034     -185275.04      23155.542      482.59313      0.088280077  
     13500   1611.1643     -194335.18      9600.3468     -184734.83      23163.232      548.96957      0.081519945  
     13600   1532.6292     -194183.36      9132.3847     -185050.98      23162.561      321.10366      0.081140662  
     13700   1518.4812     -194584.72      9048.0815     -185536.63      23147.289      1247.1147      0.080333968  
     13800   1519.5287     -194418.53      9054.3235     -185364.21      23154.714      283.32253      0.082216426  
     13900   1503.5327     -194122.21      8959.0088     -185163.2       23193.933     -1429.3391      0.076619786  
     14000   1509.1747     -194466.58      8992.6279     -185473.95      23134.456      1455.2062      0.07936354   
Loop time of 171.83 on 32 procs for 2000 steps with 2000 atoms

Performance: 1.006 ns/day, 23.865 hours/ns, 11.639 timesteps/s, 23.279 katom-step/s
99.8% CPU use with 32 MPI tasks x no OpenMP threads

MPI task timing breakdown:
Section |  min time  |  avg time  |  max time  |%varavg| %total
---------------------------------------------------------------
Pair    | 159.05     | 162.44     | 167.83     |  13.2 | 94.54
Neigh   | 0          | 0          | 0          |   0.0 |  0.00
Comm    | 3.7588     | 9.1591     | 12.543     |  55.5 |  5.33
Output  | 0.0051276  | 0.0051504  | 0.005463   |   0.1 |  0.00
Modify  | 0.10524    | 0.12627    | 0.14686    |   4.2 |  0.07
Other   |            | 0.09858    |            |       |  0.06

Nlocal:           62.5 ave          72 max          52 min
Histogram: 2 1 2 1 5 6 7 4 2 2
Nghost:         4113.5 ave        4124 max        4104 min
Histogram: 1 2 2 4 9 5 3 2 1 3
Neighs:        54320.7 ave       62392 max       45375 min
Histogram: 2 2 1 2 6 7 5 4 2 1

Total # of neighbors = 1738263
Ave neighs/atom = 869.1315
Neighbor list builds = 0
Dangerous builds = 0
next i
jump SELF loop_heating
variable i loop 151 260
variable Temp equal $i*10
variable Temp equal 153*10
fix 		1 all langevin ${Temp} ${Temp} 100 29345 zero yes
fix 		1 all langevin 1530 ${Temp} 100 29345 zero yes
fix 		1 all langevin 1530 1530 100 29345 zero yes
run 2000
Per MPI rank memory allocation (min/avg/max) = 81.31 | 81.46 | 81.94 Mbytes
   Step          Temp          PotEng         KinEng         TotEng         Volume         Press         c_msd[4]   
     14000   1509.1747     -194466.58      8992.6279     -185473.95      23134.456      1455.2062      0.07936354   
     14100   1537.3482     -194497.95      9160.5035     -185337.45      23171.381     -1252.3257      0.079442428  
     14200   1551.4491     -194522.69      9244.5256     -185278.17      23147.733      1014.7545      0.078818859  
     14300   1532.4217     -194156.3       9131.1479     -185025.15      23150.754      750.57162      0.082666144  
     14400   1497.7514     -194268.81      8924.5603     -185344.25      23196.044     -2999.0247      0.082505494  
     14500   1527.0641     -194471.54      9099.2243     -185372.32      23105.869      3024.9915      0.082586506  
     14600   1540.0296     -194394.71      9176.4811     -185218.23      23226.448     -2769.6429      0.076996822  
     14700   1574.6861     -194418.71      9382.9866     -185035.73      23108.123      3372.0337      0.082914051  
     14800   1531.5441     -194391.72      9125.9191     -185265.8       23199.037     -2385.693       0.078075715  
     14900   1521.4384     -194063.17      9065.7027     -184997.47      23131.086      1310.1005      0.083882169  
     15000   1586.3233     -194411.28      9452.3281     -184958.95      23177.544     -416.12695      0.079480262  
     15100   1545.3873     -194112.03      9208.4056     -184903.62      23149.438      2034.6528      0.084981873  
     15200   1534.863      -194089.27      9145.695      -184943.57      23208.736     -1869.3744      0.080631774  
     15300   1534.5214     -194196.02      9143.6596     -185052.36      23143.123      1690.3029      0.081370662  
     15400   1550.7306     -194283.21      9240.2442     -185042.97      23197.64      -2121.4136      0.084405413  
     15500   1516.033      -194469.94      9033.4938     -185436.44      23128.999      1521.4181      0.084293305  
     15600   1548.6147     -194352.63      9227.6366     -185125         23194.788     -2149.5795      0.081033083  
     15700   1502.3541     -194144.5       8951.986      -185192.51      23151.509      680.56533      0.083422489  
     15800   1469.5061     -194062.4       8756.2568     -185306.14      23193.188     -2012.1425      0.083938383  
     15900   1480.5801     -194347.06      8822.2428     -185524.82      23161.598     -613.04068      0.08158318   
     16000   1507.312      -194510.25      8981.5284     -185528.72      23168.595     -455.85568      0.078804602  
Loop time of 169.864 on 32 procs for 2000 steps with 2000 atoms

Performance: 1.017 ns/day, 23.592 hours/ns, 11.774 timesteps/s, 23.548 katom-step/s
99.8% CPU use with 32 MPI tasks x no OpenMP threads

MPI task timing breakdown:
Section |  min time  |  avg time  |  max time  |%varavg| %total
---------------------------------------------------------------
Pair    | 158.43     | 162.59     | 166.38     |  13.9 | 95.72
Neigh   | 0          | 0          | 0          |   0.0 |  0.00
Comm    | 3.2193     | 7.0414     | 11.173     |  66.8 |  4.15
Output  | 0.0053623  | 0.0054456  | 0.0058015  |   0.1 |  0.00
Modify  | 0.10496    | 0.1236     | 0.14487    |   3.5 |  0.07
Other   |            | 0.1063     |            |       |  0.06

Nlocal:           62.5 ave          71 max          56 min
Histogram: 3 3 4 3 9 2 3 1 2 2
Nghost:         4113.5 ave        4120 max        4105 min
Histogram: 2 1 2 2 3 6 6 4 3 3
Neighs:        54366.5 ave       61473 max       48781 min
Histogram: 3 3 4 4 8 2 3 1 2 2

Total # of neighbors = 1739729
Ave neighs/atom = 869.8645
Neighbor list builds = 0
Dangerous builds = 0
next i
jump SELF loop_heating
variable i loop 151 260
variable Temp equal $i*10
variable Temp equal 154*10
fix 		1 all langevin ${Temp} ${Temp} 100 29345 zero yes
fix 		1 all langevin 1540 ${Temp} 100 29345 zero yes
fix 		1 all langevin 1540 1540 100 29345 zero yes
run 2000
Per MPI rank memory allocation (min/avg/max) = 81.81 | 81.87 | 81.96 Mbytes
   Step          Temp          PotEng         KinEng         TotEng         Volume         Press         c_msd[4]   
     16000   1507.312      -194510.25      8981.5284     -185528.72      23168.595     -455.85568      0.078804602  
     16100   1515.2456     -194056.13      9028.802      -185027.33      23172.656     -1010.765       0.085442091  
     16200   1528.7397     -194291.67      9109.2084     -185182.46      23151.356      1155.6035      0.081366665  
     16300   1558.0237     -194478.31      9283.7012     -185194.61      23164.598      392.85826      0.081539507  
     16400   1539.1565     -194525.95      9171.2782     -185354.67      23156.311      1142.7374      0.08311795   
     16500   1562.4773     -194044.07      9310.2386     -184733.83      23189.026     -109.33774      0.081314456  
     16600   1550.9478     -194217.41      9241.5388     -184975.87      23166.234     -29.553849      0.082603367  
     16700   1532.0279     -194368.55      9128.8016     -185239.75      23143.898      1605.9512      0.079111897  
     16800   1508.9959     -194421.99      8991.5623     -185430.42      23172.204     -843.85434      0.078596517  
     16900   1569.3585     -194569.88      9351.2413     -185218.63      23139.753      1072.8987      0.082019157  
     17000   1506.2829     -194336.64      8975.3967     -185361.24      23149.326      392.31233      0.081823724  
     17100   1524.1998     -194449.7       9082.1569     -185367.55      23170.651     -406.04874      0.078263414  
     17200   1563.1942     -194504.83      9314.5103     -185190.31      23150.2        1088.4103      0.082174071  
     17300   1543.2309     -194118.28      9195.5565     -184922.73      23198.462     -1935.2454      0.085647706  
     17400   1547.6664     -194248.73      9221.9859     -185026.74      23138.584      2575.2231      0.092070468  
     17500   1553.6574     -194339.73      9257.6843     -185082.05      23191.756     -1760.2217      0.085431636  
     17600   1555.5725     -194352.33      9269.0954     -185083.23      23117.57       3002.1874      0.082467859  
     17700   1488.4065     -194227.81      8868.8776     -185358.94      23219.143     -3355.4972      0.078610823  
     17800   1470.0896     -194454.22      8759.7339     -185694.48      23107.442      2828.9424      0.081832018  
     17900   1497.049      -194389.12      8920.3752     -185468.74      23208.128     -2452.2861      0.083342136  
     18000   1512.1113     -194633.44      9010.1258     -185623.31      23116.958      2343.0696      0.081550354  
Loop time of 172.619 on 32 procs for 2000 steps with 2000 atoms

Performance: 1.001 ns/day, 23.975 hours/ns, 11.586 timesteps/s, 23.172 katom-step/s
99.8% CPU use with 32 MPI tasks x no OpenMP threads

MPI task timing breakdown:
Section |  min time  |  avg time  |  max time  |%varavg| %total
---------------------------------------------------------------
Pair    | 159.99     | 163.13     | 166.02     |  14.9 | 94.50
Neigh   | 0          | 0          | 0          |   0.0 |  0.00
Comm    | 6.365      | 9.2562     | 12.409     |  62.4 |  5.36
Output  | 0.0052372  | 0.0052652  | 0.0055687  |   0.1 |  0.00
Modify  | 0.11293    | 0.12464    | 0.14278    |   2.6 |  0.07
Other   |            | 0.1029     |            |       |  0.06

Nlocal:           62.5 ave          71 max          56 min
Histogram: 3 2 7 3 5 2 4 2 2 2
Nghost:         4113.5 ave        4120 max        4105 min
Histogram: 2 0 4 1 5 2 6 6 3 3
Neighs:        54309.6 ave       61456 max       48827 min
Histogram: 3 3 6 6 2 3 3 2 2 2

Total # of neighbors = 1737906
Ave neighs/atom = 868.953
Neighbor list builds = 0
Dangerous builds = 0
next i
jump SELF loop_heating
variable i loop 151 260
variable Temp equal $i*10
variable Temp equal 155*10
fix 		1 all langevin ${Temp} ${Temp} 100 29345 zero yes
fix 		1 all langevin 1550 ${Temp} 100 29345 zero yes
fix 		1 all langevin 1550 1550 100 29345 zero yes
run 2000
Per MPI rank memory allocation (min/avg/max) = 81.58 | 81.67 | 81.76 Mbytes
   Step          Temp          PotEng         KinEng         TotEng         Volume         Press         c_msd[4]   
     18000   1512.1113     -194633.44      9010.1258     -185623.31      23116.958      2343.0696      0.081550354  
     18100   1531.6767     -194375.08      9126.7089     -185248.37      23187.847     -1535.4137      0.080850102  
     18200   1526.0542     -194021.08      9093.2064     -184927.87      23151.898     -209.06825      0.083827888  
     18300   1546.993      -194191.15      9217.9736     -184973.17      23196.428     -2037.5782      0.081502861  
     18400   1497.9355     -194452.45      8925.6574     -185526.79      23161.612      548.60565      0.081020338  
     18500   1556.6237     -194112.76      9275.3592     -184837.4       23170.236      890.88812      0.080243108  
     18600   1513.2354     -194027.5       9016.8241     -185010.67      23193.857     -1809.4079      0.081062163  
     18700   1477.1174     -194281.76      8801.61       -185480.15      23154.053      592.53779      0.082405321  
     18800   1499.2162     -194725.38      8933.2887     -185792.09      23171.964     -487.56139      0.076828256  
     18900   1502.998      -194450.13      8955.8231     -185494.31      23135.793      1155.626       0.082122825  
     19000   1585.0409     -194466.43      9444.687      -185021.74      23177.311     -509.39413      0.079453971  
     19100   1538.7868     -194225.46      9169.0757     -185056.38      23162.616      201.42968      0.080996186  
     19200   1561.3242     -194083.35      9303.3675     -184779.99      23182.698     -705.88163      0.082041322  
     19300   1504.7992     -193854.32      8966.5556     -184887.77      23175.793     -141.602        0.086940986  
     19400   1575.6257     -194057.08      9388.5852     -184668.5       23158.385      1733.1534      0.084096832  
     19500   1549.1948     -194005.22      9231.0933     -184774.12      23174.227     -355.28336      0.086616499  
     19600   1553.92       -194419.32      9259.2486     -185160.07      23162.99       515.65121      0.083385296  
     19700   1495.3568     -194126.72      8910.292      -185216.43      23176.475     -834.57447      0.082887662  
     19800   1559.8298     -194217.51      9294.463      -184923.04      23139.673      2293.1811      0.084206334  
     19900   1553.9657     -194193.32      9259.521      -184933.79      23200.667     -1010.7545      0.08067295   
     20000   1589.4767     -194263.76      9471.1182     -184792.64      23155.796      2176.422       0.080256679  
Loop time of 171.985 on 32 procs for 2000 steps with 2000 atoms

Performance: 1.005 ns/day, 23.887 hours/ns, 11.629 timesteps/s, 23.258 katom-step/s
99.8% CPU use with 32 MPI tasks x no OpenMP threads

MPI task timing breakdown:
Section |  min time  |  avg time  |  max time  |%varavg| %total
---------------------------------------------------------------
Pair    | 159.59     | 163.3      | 165.82     |  12.5 | 94.95
Neigh   | 0          | 0          | 0          |   0.0 |  0.00
Comm    | 5.9076     | 8.4496     | 12.158     |  55.1 |  4.91
Output  | 0.0051385  | 0.005165   | 0.0054685  |   0.1 |  0.00
Modify  | 0.11591    | 0.12241    | 0.13485    |   1.4 |  0.07
Other   |            | 0.1068     |            |       |  0.06

Nlocal:           62.5 ave          71 max          57 min
Histogram: 6 2 4 5 1 6 4 2 1 1
Nghost:         4113.5 ave        4119 max        4105 min
Histogram: 1 1 2 4 2 5 5 4 2 6
Neighs:        54395.3 ave       61545 max       49684 min
Histogram: 6 2 4 5 2 5 4 2 1 1

Total # of neighbors = 1740649
Ave neighs/atom = 870.3245
Neighbor list builds = 0
Dangerous builds = 0
next i
jump SELF loop_heating
variable i loop 151 260
variable Temp equal $i*10
variable Temp equal 156*10
fix 		1 all langevin ${Temp} ${Temp} 100 29345 zero yes
fix 		1 all langevin 1560 ${Temp} 100 29345 zero yes
fix 		1 all langevin 1560 1560 100 29345 zero yes
run 2000
Per MPI rank memory allocation (min/avg/max) = 81.9 | 81.98 | 82.05 Mbytes
   Step          Temp          PotEng         KinEng         TotEng         Volume         Press         c_msd[4]   
     20000   1589.4767     -194263.76      9471.1182     -184792.64      23155.796      2176.422       0.080256679  
     20100   1537.8457     -194123.85      9163.4679     -184960.38      23172.913     -333.81318      0.082650919  
     20200   1560.2521     -194252.78      9296.9796     -184955.8       23179.911     -1259.0049      0.081390262  
     20300   1607.8303     -194256.78      9580.481      -184676.3       23171.524     -38.988504      0.082259521  
     20400   1542.6547     -194403.19      9192.123      -185211.06      23165.878      481.70033      0.080416423  
     20500   1590.5388     -194369.6       9477.4469     -184892.15      23174.283      716.80414      0.077917837  
     20600   1496.949      -194280.09      8919.7789     -185360.31      23179.934     -1154.2299      0.080394714  
     20700   1524.211      -194551.75      9082.2235     -185469.52      23161.139      639.15329      0.079556383  
     20800   1502.1521     -194295.33      8950.7824     -185344.55      23172.922     -1111.6412      0.080512614  
     20900   1554.2238     -194472.12      9261.0593     -185211.06      23150.157      905.01929      0.081911755  
     21000   1566.1568     -194294.07      9332.1633     -184961.91      23187.872     -1526.8195      0.081952436  
     21100   1578.0396     -194143.02      9402.9685     -184740.05      23153.461      1381.5889      0.079970457  
     21200   1588.9022     -194541.87      9467.695      -185074.17      23176.165      3.2844689      0.076247307  
     21300   1541.2135     -194177.27      9183.5352     -184993.74      23178.625     -1278.7838      0.080230645  
     21400   1540.9842     -194368.65      9182.169      -185186.49      23141.354      1533.2012      0.081533548  
     21500   1503.0707     -194180.63      8956.2561     -185224.37      23181.453     -1692.5855      0.0853751    
     21600   1553.7391     -194258.44      9258.1706     -185000.27      23164.53       20.061554      0.083165984  
     21700   1574.9285     -194034.57      9384.4307     -184650.14      23168.168     -402.67516      0.080558663  
     21800   1529.5303     -194139.7       9113.9194     -185025.78      23177.186     -623.33389      0.080183768  
     21900   1560.6261     -194023         9299.2082     -184723.79      23155.184      671.09428      0.083653225  
     22000   1607.0474     -194176.58      9575.8161     -184600.76      23164.601      934.15857      0.082047176  
Loop time of 169.607 on 32 procs for 2000 steps with 2000 atoms

Performance: 1.019 ns/day, 23.557 hours/ns, 11.792 timesteps/s, 23.584 katom-step/s
99.8% CPU use with 32 MPI tasks x no OpenMP threads

MPI task timing breakdown:
Section |  min time  |  avg time  |  max time  |%varavg| %total
---------------------------------------------------------------
Pair    | 159.21     | 163.15     | 165.85     |  12.2 | 96.19
Neigh   | 0          | 0          | 0          |   0.0 |  0.00
Comm    | 3.5146     | 6.2251     | 10.17      |  62.4 |  3.67
Output  | 0.0048222  | 0.004849   | 0.0051626  |   0.1 |  0.00
Modify  | 0.10204    | 0.1226     | 0.13292    |   2.6 |  0.07
Other   |            | 0.1051     |            |       |  0.06

Nlocal:           62.5 ave          70 max          55 min
Histogram: 3 0 4 1 8 5 4 3 3 1
Nghost:         4113.5 ave        4121 max        4106 min
Histogram: 1 2 4 2 7 7 2 2 2 3
Neighs:        54324.2 ave       60745 max       47928 min
Histogram: 3 0 4 1 8 6 3 3 3 1

Total # of neighbors = 1738373
Ave neighs/atom = 869.1865
Neighbor list builds = 0
Dangerous builds = 0
next i
jump SELF loop_heating
variable i loop 151 260
variable Temp equal $i*10
variable Temp equal 157*10
fix 		1 all langevin ${Temp} ${Temp} 100 29345 zero yes
fix 		1 all langevin 1570 ${Temp} 100 29345 zero yes
fix 		1 all langevin 1570 1570 100 29345 zero yes
run 2000
Per MPI rank memory allocation (min/avg/max) = 81.57 | 81.73 | 82.02 Mbytes
   Step          Temp          PotEng         KinEng         TotEng         Volume         Press         c_msd[4]   
     22000   1607.0474     -194176.58      9575.8161     -184600.76      23164.601      934.15857      0.082047176  
     22100   1555.0766     -193835.5       9266.1407     -184569.36      23183.28      -729.78607      0.084313216  
     22200   1526.118      -193901.13      9093.5867     -184807.54      23161.122     -750.44735      0.08720369   
     22300   1561.0134     -194222.05      9301.5157     -184920.53      23159.105      63.926768      0.082489534  
     22400   1583.1366     -194406.06      9433.3402     -184972.72      23217.411     -1748.1569      0.079523303  
     22500   1576.7474     -194347.44      9395.2693     -184952.17      23104.581      3985.6222      0.080933659  
     22600   1551.4728     -194273.45      9244.6669     -185028.78      23235.75      -3060.0187      0.080130198  
     22700   1583.0389     -194137.6       9432.7578     -184704.84      23114.107      4024.658       0.084732728  
     22800   1565.5684     -193739.73      9328.6572     -184411.07      23225.229     -2491.9809      0.081124064  
     22900   1584.9462     -193809.61      9444.1226     -184365.48      23153.008      1324.9861      0.086159865  
     23000   1593.0638     -193905.73      9492.4926     -184413.23      23201.781     -2060.3322      0.084303732  
     23100   1613.5387     -194075.22      9614.495      -184460.72      23168.03       1042.9311      0.080084912  
     23200   1585.7451     -193965.82      9448.883      -184516.94      23177.101      384.86558      0.08257818   
     23300   1579.7471     -193981.07      9413.1431     -184567.93      23208.182     -1625.3596      0.084729857  
     23400   1573.7208     -194138.92      9377.2346     -184761.69      23104.567      3820.9328      0.090025371  
     23500   1544.7775     -194009.67      9204.7721     -184804.89      23231.585     -4006.8191      0.082000691  
     23600   1546.6309     -193971.74      9215.8154     -184755.93      23115.408      2838.7683      0.086370427  
     23700   1561.3297     -193883.59      9303.4007     -184580.19      23249.686     -3804.7902      0.081523489  
     23800   1548.2601     -194082.61      9225.5237     -184857.08      23099.539      4057.0286      0.091473733  
     23900   1570.6745     -194039.27      9359.083      -184680.19      23225.811     -3794.6496      0.085523478  
     24000   1597.7536     -194143.73      9520.4374     -184623.29      23121.695      3163.9905      0.084590856  
Loop time of 169.107 on 32 procs for 2000 steps with 2000 atoms

Performance: 1.022 ns/day, 23.487 hours/ns, 11.827 timesteps/s, 23.654 katom-step/s
99.8% CPU use with 32 MPI tasks x no OpenMP threads

MPI task timing breakdown:
Section |  min time  |  avg time  |  max time  |%varavg| %total
---------------------------------------------------------------
Pair    | 158.9      | 162.72     | 165.1      |  12.7 | 96.22
Neigh   | 0          | 0          | 0          |   0.0 |  0.00
Comm    | 3.7681     | 6.1549     | 9.9587     |  65.2 |  3.64
Output  | 0.0055883  | 0.0056177  | 0.0059225  |   0.1 |  0.00
Modify  | 0.10003    | 0.12645    | 0.14592    |   4.2 |  0.07
Other   |            | 0.1035     |            |       |  0.06

Nlocal:           62.5 ave          73 max          53 min
Histogram: 1 2 3 6 5 4 4 4 1 2
Nghost:         4113.5 ave        4123 max        4103 min
Histogram: 1 2 1 4 5 5 7 1 4 2
Neighs:        54313.4 ave       63165 max       46350 min
Histogram: 2 3 1 7 6 4 4 2 2 1

Total # of neighbors = 1738028
Ave neighs/atom = 869.014
Neighbor list builds = 0
Dangerous builds = 0
next i
jump SELF loop_heating
variable i loop 151 260
variable Temp equal $i*10
variable Temp equal 158*10
fix 		1 all langevin ${Temp} ${Temp} 100 29345 zero yes
fix 		1 all langevin 1580 ${Temp} 100 29345 zero yes
fix 		1 all langevin 1580 1580 100 29345 zero yes
run 2000
Per MPI rank memory allocation (min/avg/max) = 81.63 | 81.75 | 81.85 Mbytes
   Step          Temp          PotEng         KinEng         TotEng         Volume         Press         c_msd[4]   
     24000   1597.7536     -194143.73      9520.4374     -184623.29      23121.695      3163.9905      0.084590856  
     24100   1584.411      -193679.45      9440.9334     -184238.51      23227.146     -2680.2067      0.082376451  
     24200   1569.9989     -193609.58      9355.057      -184254.52      23179.019     -151.03874      0.085612271  
     24300   1579.8311     -193890.49      9413.6435     -184476.84      23169.326      875.65145      0.08370418   
     24400   1554.634      -193815.6       9263.5032     -184552.09      23194.879     -784.29766      0.084945262  
     24500   1587.6819     -193906.92      9460.4236     -184446.49      23169.249      660.65319      0.086279199  
     24600   1601.7908     -194035.61      9544.4937     -184491.12      23198.423     -961.9838       0.080354094  
     24700   1603.7462     -194047.25      9556.145      -184491.1       23137.663      2531.5115      0.084818021  
     24800   1574.3183     -193859.43      9380.7952     -184478.63      23204.963     -1980.6827      0.085075052  
     24900   1563.383      -193859.63      9315.6354     -184543.99      23150.18       775.23446      0.086927675  
     25000   1589.7993     -193753.72      9473.0407     -184280.68      23205.912     -684.13043      0.082574875  
     25100   1578.9518     -193923.12      9408.4041     -184514.71      23139.929      1149.1655      0.085864016  
     25200   1559.8088     -193688.91      9294.3379     -184394.57      23237.336     -4282.9102      0.083982622  
     25300   1600.695      -194242.45      9537.9641     -184704.48      23119.018      3188.8662      0.087643076  
     25400   1558.8812     -193927.53      9288.8108     -184638.72      23224.902     -1957.4122      0.084367068  
     25500   1605.9519     -193933.54      9569.288      -184364.25      23139.412      2742.1036      0.083730229  
     25600   1563.5312     -194005.38      9316.5185     -184688.86      23234.349     -2726.6944      0.080148854  
     25700   1559.2965     -194143.79      9291.2852     -184852.5       23117.281      2946.3638      0.084807436  
     25800   1547.9827     -194234.53      9223.8707     -185010.66      23233.102     -3779.5025      0.081021976  
     25900   1565.2252     -193951.08      9326.6125     -184624.47      23103.27       2958.3898      0.089210212  
     26000   1544.7568     -193877.92      9204.6484     -184673.28      23238.778     -3937.3858      0.082719453  
Loop time of 172.919 on 32 procs for 2000 steps with 2000 atoms

Performance: 0.999 ns/day, 24.016 hours/ns, 11.566 timesteps/s, 23.132 katom-step/s
99.7% CPU use with 32 MPI tasks x no OpenMP threads

MPI task timing breakdown:
Section |  min time  |  avg time  |  max time  |%varavg| %total
---------------------------------------------------------------
Pair    | 159.73     | 163.64     | 166.34     |  11.7 | 94.63
Neigh   | 0          | 0          | 0          |   0.0 |  0.00
Comm    | 6.3531     | 9.0425     | 12.945     |  49.7 |  5.23
Output  | 0.0053414  | 0.0053692  | 0.0056919  |   0.1 |  0.00
Modify  | 0.114      | 0.12505    | 0.13498    |   1.8 |  0.07
Other   |            | 0.1057     |            |       |  0.06

Nlocal:           62.5 ave          67 max          58 min
Histogram: 2 3 4 2 3 7 3 3 4 1
Nghost:         4113.5 ave        4118 max        4109 min
Histogram: 1 4 3 3 7 3 2 4 3 2
Neighs:        54379.8 ave       58233 max       50527 min
Histogram: 2 3 4 2 3 7 3 3 4 1

Total # of neighbors = 1740152
Ave neighs/atom = 870.076
Neighbor list builds = 0
Dangerous builds = 0
next i
jump SELF loop_heating
variable i loop 151 260
variable Temp equal $i*10
variable Temp equal 159*10
fix 		1 all langevin ${Temp} ${Temp} 100 29345 zero yes
fix 		1 all langevin 1590 ${Temp} 100 29345 zero yes
fix 		1 all langevin 1590 1590 100 29345 zero yes
run 2000
Per MPI rank memory allocation (min/avg/max) = 81.71 | 81.91 | 82.07 Mbytes
   Step          Temp          PotEng         KinEng         TotEng         Volume         Press         c_msd[4]   
     26000   1544.7568     -193877.92      9204.6484     -184673.28      23238.778     -3937.3858      0.082719453  
     26100   1595.0105     -193795.45      9504.0921     -184291.35      23121.641      3179.3992      0.088410505  
     26200   1620.2312     -193909.45      9654.3732     -184255.08      23231.791     -3739.6927      0.082114654  
     26300   1639.3905     -194130.09      9768.5368     -184361.56      23119.079      3957.8806      0.08641506   
     26400   1581.4534     -193721.81      9423.3105     -184298.5       23206.754     -1953.651       0.083943346  
     26500   1602.9407     -193985.74      9551.3453     -184434.4       23160.17       633.33096      0.084429349  
     26600   1602.5828     -193648.21      9549.2128     -184099         23182.144     -171.82279      0.085883852  
     26700   1599.5127     -193657.39      9530.9193     -184126.47      23203.779     -1788.3987      0.083998997  
     26800   1622.0891     -193605.76      9665.4439     -183940.32      23159.724      1224.407       0.091146549  
     26900   1643.544      -193531.97      9793.2857     -183738.69      23200.968     -101.45981      0.087903379  
     27000   1675.0302     -193539.49      9980.9009     -183558.59      23181.283      670.30144      0.087219431  
     27100   1559.1536     -193640.21      9290.4342     -184349.78      23176.704     -477.57564      0.089230958  
     27200   1542.6597     -193502.82      9192.1524     -184310.67      23198.443     -1407.3236      0.0854794    
     27300   1594.6457     -193676.76      9501.9187     -184174.84      23172.257      971.80904      0.082737133  
     27400   1581.744      -193574.16      9425.0417     -184149.12      23186.11      -257.99597      0.086047888  
     27500   1612.9409     -193848.23      9610.933      -184237.3       23177.803      175.46482      0.086559835  
     27600   1597.8136     -193971.12      9520.7952     -184450.32      23168.504      949.37265      0.086149854  
     27700   1585.7403     -193888.03      9448.8542     -184439.18      23203.652     -1642.8134      0.085321822  
     27800   1614.0803     -193827.55      9617.7222     -184209.82      23143.263      1600.3916      0.08463967   
     27900   1621.3037     -193766.73      9660.7636     -184105.96      23193.334     -805.33703      0.081325364  
     28000   1612.6929     -193567.52      9609.4555     -183958.07      23192.626     -1574.9312      0.087283628  
Loop time of 172.157 on 32 procs for 2000 steps with 2000 atoms

Performance: 1.004 ns/day, 23.911 hours/ns, 11.617 timesteps/s, 23.235 katom-step/s
99.8% CPU use with 32 MPI tasks x no OpenMP threads

MPI task timing breakdown:
Section |  min time  |  avg time  |  max time  |%varavg| %total
---------------------------------------------------------------
Pair    | 160.92     | 163.99     | 166.09     |  10.9 | 95.25
Neigh   | 0          | 0          | 0          |   0.0 |  0.00
Comm    | 5.8235     | 7.9335     | 10.991     |  49.6 |  4.61
Output  | 0.0052547  | 0.0052843  | 0.0056058  |   0.1 |  0.00
Modify  | 0.11439    | 0.1256     | 0.13949    |   1.9 |  0.07
Other   |            | 0.1073     |            |       |  0.06

Nlocal:           62.5 ave          71 max          57 min
Histogram: 7 1 4 4 5 5 1 1 3 1
Nghost:         4113.5 ave        4119 max        4105 min
Histogram: 1 3 1 1 2 8 4 4 1 7
Neighs:        54158.1 ave       61280 max       49448 min
Histogram: 7 1 4 4 6 4 1 1 3 1

Total # of neighbors = 1733059
Ave neighs/atom = 866.5295
Neighbor list builds = 0
Dangerous builds = 0
next i
jump SELF loop_heating
variable i loop 151 260
variable Temp equal $i*10
variable Temp equal 160*10
fix 		1 all langevin ${Temp} ${Temp} 100 29345 zero yes
fix 		1 all langevin 1600 ${Temp} 100 29345 zero yes
fix 		1 all langevin 1600 1600 100 29345 zero yes
run 2000
Per MPI rank memory allocation (min/avg/max) = 81.63 | 81.73 | 82.03 Mbytes
   Step          Temp          PotEng         KinEng         TotEng         Volume         Press         c_msd[4]   
     28000   1612.6929     -193567.52      9609.4555     -183958.07      23192.626     -1574.9312      0.087283628  
     28100   1611.3452     -193810.24      9601.4246     -184208.81      23171.295      1018.5965      0.088353683  
     28200   1561.8921     -193758.5       9306.7513     -184451.75      23191.138     -1450.8272      0.086290018  
     28300   1629.0617     -193611.39      9706.9911     -183904.4       23177.755      509.85749      0.08720438   
     28400   1612.846      -193528.33      9610.3676     -183917.96      23183.905     -78.56337       0.088825581  
     28500   1636.9028     -193659.52      9753.7132     -183905.81      23184.803     -457.51362      0.086531016  
     28600   1626.7066     -193729.99      9692.958      -184037.04      23175.58       105.47896      0.087486625  
     28700   1617.4584     -193821.59      9637.8511     -184183.74      23208.588     -1439.0215      0.083649224  
     28800   1568.9808     -193878.47      9348.9909     -184529.48      23156.35       483.8084       0.08833339   
     28900   1611.0152     -193896.92      9599.4582     -184297.46      23199.841     -1256.8393      0.082180881  
     29000   1587.3452     -193711.7       9458.4176     -184253.28      23162.984      741.60828      0.083892731  
     29100   1576.6354     -193515.16      9394.6017     -184120.56      23190.544     -640.15525      0.084790361  
     29200   1660.208      -193626.98      9892.5805     -183734.4       23165.368      1803.3394      0.082877047  
     29300   1629.6917     -193677.97      9710.7447     -183967.22      23213.49      -2105.5637      0.083209776  
     29400   1560.8695     -193860.6       9300.6583     -184559.95      23146.456      758.37585      0.086334359  
     29500   1546.9006     -193584.49      9217.4228     -184367.07      23217.881     -2188.418       0.087942753  
     29600   1642.1675     -194002.95      9785.0838     -184217.86      23124.826      3298.838       0.088692934  
     29700   1598.831      -193361.6       9526.8574     -183834.74      23253.953     -3888.4509      0.08733752   
     29800   1616.8633     -194151.93      9634.3051     -184517.63      23108.09       3744.1357      0.082591013  
     29900   1585.3153     -193798.46      9446.3222     -184352.14      23221.507     -1760.1244      0.081778146  
     30000   1569.8421     -193841.86      9354.1228     -184487.74      23170.762      381.81418      0.088332318  
Loop time of 169.143 on 32 procs for 2000 steps with 2000 atoms

Performance: 1.022 ns/day, 23.492 hours/ns, 11.824 timesteps/s, 23.649 katom-step/s
99.7% CPU use with 32 MPI tasks x no OpenMP threads

MPI task timing breakdown:
Section |  min time  |  avg time  |  max time  |%varavg| %total
---------------------------------------------------------------
Pair    | 160.97     | 163.42     | 165.36     |   8.8 | 96.62
Neigh   | 0          | 0          | 0          |   0.0 |  0.00
Comm    | 3.5431     | 5.4747     | 7.9341     |  47.9 |  3.24
Output  | 0.0051126  | 0.0051352  | 0.0054763  |   0.1 |  0.00
Modify  | 0.11246    | 0.12551    | 0.13777    |   2.1 |  0.07
Other   |            | 0.1131     |            |       |  0.07

Nlocal:           62.5 ave          70 max          55 min
Histogram: 3 1 5 2 4 4 6 2 1 4
Nghost:         4113.5 ave        4121 max        4106 min
Histogram: 4 1 2 3 7 2 4 4 2 3
Neighs:        54242.6 ave       60552 max       47982 min
Histogram: 3 2 4 3 3 7 3 2 1 4

Total # of neighbors = 1735762
Ave neighs/atom = 867.881
Neighbor list builds = 0
Dangerous builds = 0
next i
jump SELF loop_heating
variable i loop 151 260
variable Temp equal $i*10
variable Temp equal 161*10
fix 		1 all langevin ${Temp} ${Temp} 100 29345 zero yes
fix 		1 all langevin 1610 ${Temp} 100 29345 zero yes
fix 		1 all langevin 1610 1610 100 29345 zero yes
run 2000
Per MPI rank memory allocation (min/avg/max) = 81.95 | 82.1 | 82.2 Mbytes
   Step          Temp          PotEng         KinEng         TotEng         Volume         Press         c_msd[4]   
     30000   1569.8421     -193841.86      9354.1228     -184487.74      23170.762      381.81418      0.088332318  
     30100   1577.9401     -193866.58      9402.3757     -184464.21      23204.442     -1729.9868      0.088776413  
     30200   1630.4281     -193697.39      9715.1329     -183982.25      23160.215      1464.9622      0.090667675  
     30300   1567.1306     -193615.33      9337.9658     -184277.36      23196.694     -1126.0787      0.087733183  
     30400   1580.8726     -193724.85      9419.8493     -184305         23177.652     -183.52225      0.08415112   
     30500   1590.0284     -193783.32      9474.4057     -184308.91      23188.778     -399.47953      0.082265456  
     30600   1620.5123     -193959.77      9656.0481     -184303.72      23211.04      -517.775        0.078964513  
     30700   1609.9141     -193726.23      9592.8973     -184133.33      23160.599      1072.4612      0.085322237  
     30800   1597.718      -193844.14      9520.225      -184323.91      23210.976     -1496.5835      0.084634875  
     30900   1579.4139     -193433.12      9411.1578     -184021.97      23156.476      1120.7315      0.089038187  
     31000   1628.1084     -193599.12      9701.3109     -183897.81      23202.346     -1105.8319      0.084071034  
     31100   1585.7505     -193617.85      9448.9151     -184168.93      23161.565      978.04955      0.084220403  
     31200   1597.884      -193608.75      9521.2146     -184087.54      23208.406     -1781.8044      0.08446061   
     31300   1601.1642     -193756.34      9540.76       -184215.58      23144.788      2380.6725      0.086797128  
     31400   1557.6276     -193633.83      9281.3412     -184352.49      23220.407     -2111.6703      0.086872302  
     31500   1618.1044     -193598.41      9641.7005     -183956.71      23189.006     -29.191496      0.089012814  
     31600   1576.4296     -193524.84      9393.3756     -184131.46      23206.944     -1147.9896      0.085632715  
     31700   1603.7213     -193829.08      9555.9966     -184273.09      23175.753      56.987838      0.083573232  
     31800   1615.6276     -193859.77      9626.942      -184232.83      23182.692      189.01689      0.085909229  
     31900   1627.8212     -193885.09      9699.5991     -184185.49      23170.317      1135.1592      0.086207857  
     32000   1610.8864     -193571.35      9598.6913     -183972.66      23172.183      233.91147      0.086313218  
Loop time of 167.676 on 32 procs for 2000 steps with 2000 atoms

Performance: 1.031 ns/day, 23.288 hours/ns, 11.928 timesteps/s, 23.855 katom-step/s
99.7% CPU use with 32 MPI tasks x no OpenMP threads

MPI task timing breakdown:
Section |  min time  |  avg time  |  max time  |%varavg| %total
---------------------------------------------------------------
Pair    | 159.27     | 162.71     | 164.53     |   9.9 | 97.04
Neigh   | 0          | 0          | 0          |   0.0 |  0.00
Comm    | 2.923      | 4.7285     | 8.1466     |  57.8 |  2.82
Output  | 0.0052103  | 0.0052374  | 0.0055697  |   0.1 |  0.00
Modify  | 0.10185    | 0.12392    | 0.14203    |   3.5 |  0.07
Other   |            | 0.1134     |            |       |  0.07

Nlocal:           62.5 ave          70 max          56 min
Histogram: 3 2 4 5 1 8 3 3 2 1
Nghost:         4113.5 ave        4120 max        4106 min
Histogram: 1 2 3 3 5 4 5 4 2 3
Neighs:        54288.4 ave       60604 max       48839 min
Histogram: 3 2 4 5 2 7 3 3 2 1

Total # of neighbors = 1737228
Ave neighs/atom = 868.614
Neighbor list builds = 0
Dangerous builds = 0
next i
jump SELF loop_heating
variable i loop 151 260
variable Temp equal $i*10
variable Temp equal 162*10
fix 		1 all langevin ${Temp} ${Temp} 100 29345 zero yes
fix 		1 all langevin 1620 ${Temp} 100 29345 zero yes
fix 		1 all langevin 1620 1620 100 29345 zero yes
run 2000
Per MPI rank memory allocation (min/avg/max) = 81.71 | 81.87 | 82.04 Mbytes
   Step          Temp          PotEng         KinEng         TotEng         Volume         Press         c_msd[4]   
     32000   1610.8864     -193571.35      9598.6913     -183972.66      23172.183      233.91147      0.086313218  
     32100   1630.1214     -193555.55      9713.3053     -183842.24      23202.488      205.62411      0.084306209  
     32200   1643.1817     -193688.01      9791.1272     -183896.88      23167.165      1134.9189      0.086005399  
     32300   1619.1915     -193903.55      9648.1781     -184255.37      23213.592     -2386.329       0.082408797  
     32400   1647.822      -193865.86      9818.7772     -184047.09      23170.209      1450.8751      0.083761223  
     32500   1670.3307     -193637.03      9952.8984     -183684.13      23219.575     -885.26484      0.083090797  
     32600   1617.4733     -193563.81      9637.94       -183925.87      23170.662      937.3796       0.088721943  
     32700   1591.5238     -193709.66      9483.3164     -184226.34      23206.713     -1475.3819      0.085949698  
     32800   1580.9519     -193637.58      9420.3222     -184217.25      23148.695      1749.3292      0.086843458  
     32900   1636.6245     -193781.38      9752.0552     -184029.32      23225.976     -1832.5343      0.084918419  
     33000   1660.9308     -193712.91      9896.8874     -183816.02      23139.33       2771.0413      0.083440675  
     33100   1570.3063     -193695.57      9356.8889     -184338.68      23222.14      -2646.3464      0.080564326  
     33200   1616.8727     -193607.31      9634.3613     -183972.95      23152.591      2146.9818      0.085812298  
     33300   1667.3284     -193748.68      9935.0084     -183813.67      23209.766      471.47454      0.087389845  
     33400   1606.1956     -193628.21      9570.74       -184057.47      23186.721      94.377242      0.088480822  
     33500   1565.9868     -193792.93      9331.1507     -184461.78      23188.115     -387.41433      0.086552192  
     33600   1636.5995     -193994.36      9751.9058     -184242.46      23208.837     -1342.7189      0.084742969  
     33700   1608.4055     -193810.72      9583.9083     -184226.81      23147.875      2288.9819      0.085364454  
     33800   1580.713      -193979.18      9418.8987     -184560.28      23207.045     -1633.4298      0.078866965  
     33900   1602.5053     -193776.29      9548.7511     -184227.54      23167.915      650.05251      0.08538127   
     34000   1592.8039     -193665.9       9490.9441     -184174.95      23199.932     -1051.4943      0.081570283  
Loop time of 169.171 on 32 procs for 2000 steps with 2000 atoms

Performance: 1.021 ns/day, 23.496 hours/ns, 11.822 timesteps/s, 23.645 katom-step/s
99.8% CPU use with 32 MPI tasks x no OpenMP threads

MPI task timing breakdown:
Section |  min time  |  avg time  |  max time  |%varavg| %total
---------------------------------------------------------------
Pair    | 159.46     | 163.59     | 165.11     |   9.7 | 96.70
Neigh   | 0          | 0          | 0          |   0.0 |  0.00
Comm    | 3.8166     | 5.3416     | 9.4639     |  53.5 |  3.16
Output  | 0.005325   | 0.0053526  | 0.0056802  |   0.1 |  0.00
Modify  | 0.11159    | 0.12354    | 0.13252    |   1.7 |  0.07
Other   |            | 0.1154     |            |       |  0.07

Nlocal:           62.5 ave          70 max          56 min
Histogram: 2 3 6 3 3 5 2 5 1 2
Nghost:         4113.5 ave        4120 max        4106 min
Histogram: 2 1 5 2 4 4 3 6 3 2
Neighs:        54283.8 ave       60625 max       48687 min
Histogram: 2 3 6 3 3 5 2 5 1 2

Total # of neighbors = 1737083
Ave neighs/atom = 868.5415
Neighbor list builds = 0
Dangerous builds = 0
next i
jump SELF loop_heating
variable i loop 151 260
variable Temp equal $i*10
variable Temp equal 163*10
fix 		1 all langevin ${Temp} ${Temp} 100 29345 zero yes
fix 		1 all langevin 1630 ${Temp} 100 29345 zero yes
fix 		1 all langevin 1630 1630 100 29345 zero yes
run 2000
Per MPI rank memory allocation (min/avg/max) = 81.99 | 82.08 | 82.15 Mbytes
   Step          Temp          PotEng         KinEng         TotEng         Volume         Press         c_msd[4]   
     34000   1592.8039     -193665.9       9490.9441     -184174.95      23199.932     -1051.4943      0.081570283  
     34100   1583.8143     -193704.29      9437.3782     -184266.91      23155.543      1278.5982      0.086565454  
     34200   1600.2255     -193565.13      9535.1664     -184029.96      23200.724     -1520.3345      0.08522697   
     34300   1611.054      -193949.25      9599.6898     -184349.56      23164.049      676.31114      0.08443826   
     34400   1595.5455     -193894.72      9507.28       -184387.44      23191.915      110.06872      0.084795986  
     34500   1594.8375     -193657.97      9503.0613     -184154.91      23188.491      159.5154       0.084224421  
     34600   1641.7936     -193651.2       9782.8557     -183868.35      23181.393      1035.9697      0.088118604  
     34700   1617.5282     -193719.37      9638.2669     -184081.1       23204.224     -413.49826      0.08583193   
     34800   1605.7202     -193567.52      9567.9074     -183999.61      23160.613      303.15267      0.090000513  
     34900   1645.1428     -193467.11      9802.8124     -183664.3       23217.865     -2156.7821      0.08393304   
     35000   1646.5476     -193807.9       9811.183      -183996.72      23156.172      2169.7093      0.085185296  
     35100   1637.3131     -193515.88      9756.1584     -183759.72      23231.543     -1529.8992      0.08236882   
     35200   1632.7629     -193524.4       9729.0452     -183795.36      23155.254      1297.6018      0.089891035  
     35300   1630.061      -193394.41      9712.9454     -183681.47      23221.523     -1791.382       0.087080797  
     35400   1623.1934     -193421.32      9672.0242     -183749.3       23159.769      1219.3235      0.087512762  
     35500   1620.71       -193433.99      9657.2262     -183776.76      23233.172     -2991.2809      0.08535773   
     35600   1627.0209     -193436.43      9694.8308     -183741.6       23113.031      3759.982       0.090523521  
     35700   1664.6587     -193793.45      9919.1008     -183874.35      23245.552     -4015.2411      0.085052135  
     35800   1629.2295     -193569.85      9707.9907     -183861.85      23116.223      3947.0529      0.094472639  
     35900   1625.3538     -193644.85      9684.8969     -183959.95      23223.082     -2180.6522      0.090908511  
     36000   1673.5275     -193869.3       9971.9466     -183897.36      23152.059      1899.4297      0.087097824  
Loop time of 169.658 on 32 procs for 2000 steps with 2000 atoms

Performance: 1.019 ns/day, 23.564 hours/ns, 11.788 timesteps/s, 23.577 katom-step/s
99.7% CPU use with 32 MPI tasks x no OpenMP threads

MPI task timing breakdown:
Section |  min time  |  avg time  |  max time  |%varavg| %total
---------------------------------------------------------------
Pair    | 161.08     | 163.75     | 166.29     |  10.7 | 96.52
Neigh   | 0          | 0          | 0          |   0.0 |  0.00
Comm    | 3.1393     | 5.6643     | 8.3261     |  57.3 |  3.34
Output  | 0.0052276  | 0.0052549  | 0.0055747  |   0.1 |  0.00
Modify  | 0.10463    | 0.12394    | 0.14274    |   3.3 |  0.07
Other   |            | 0.1158     |            |       |  0.07

Nlocal:           62.5 ave          69 max          58 min
Histogram: 10 2 2 3 2 3 3 2 0 5
Nghost:         4113.5 ave        4118 max        4107 min
Histogram: 5 0 2 3 3 2 3 2 2 10
Neighs:        54242.4 ave       59797 max       50369 min
Histogram: 9 3 2 3 2 3 3 2 1 4

Total # of neighbors = 1735757
Ave neighs/atom = 867.8785
Neighbor list builds = 0
Dangerous builds = 0
next i
jump SELF loop_heating
variable i loop 151 260
variable Temp equal $i*10
variable Temp equal 164*10
fix 		1 all langevin ${Temp} ${Temp} 100 29345 zero yes
fix 		1 all langevin 1640 ${Temp} 100 29345 zero yes
fix 		1 all langevin 1640 1640 100 29345 zero yes
run 2000
Per MPI rank memory allocation (min/avg/max) = 81.7 | 81.85 | 81.92 Mbytes
   Step          Temp          PotEng         KinEng         TotEng         Volume         Press         c_msd[4]   
     36000   1673.5275     -193869.3       9971.9466     -183897.36      23152.059      1899.4297      0.087097824  
     36100   1586.7338     -193240.68      9454.7741     -183785.91      23197.534     -1743.4149      0.090067493  
     36200   1686.7683     -193784.08      10050.844     -183733.24      23144.109      2776.2157      0.090680689  
     36300   1633.2053     -193743.61      9731.6814     -184011.93      23220.262     -2303.3341      0.087712509  
     36400   1647.4138     -193560.2       9816.3445     -183743.85      23189.076      897.42733      0.086880287  
     36500   1656.1907     -193057.34      9868.6431     -183188.7       23200.423     -538.14497      0.088095248  
     36600   1686.3372     -193483.84      10048.275     -183435.57      23184.951      1641.3302      0.087364283  
     36700   1647.7122     -193656.23      9818.1227     -183838.11      23181.831      1127.5369      0.084439531  
     36800   1652.9239     -194143.84      9849.1773     -184294.66      23197.832     -202.45007      0.080650308  
     36900   1667.1245     -193759.86      9933.7934     -183826.07      23144.319      3772.3834      0.088709923  
     37000   1661.4741     -193498.14      9900.1246     -183598.01      23243.627     -2202.0581      0.083894418  
     37100   1641.8065     -193389.15      9782.9327     -183606.21      23132.05       3393.3546      0.086096951  
     37200   1712.48       -193526.77      10204.051     -183322.72      23238.269     -2186.3114      0.081824681  
     37300   1631.6966     -193587.65      9722.6917     -183864.96      23154.749      2097.1477      0.084609382  
     37400   1644.7558     -193255.58      9800.5067     -183455.07      23243.996     -2592.0082      0.088334642  
     37500   1649.5056     -193466.01      9828.809      -183637.2       23148.295      2607.1752      0.089499234  
     37600   1679.2697     -193727.09      10006.163     -183720.93      23223.123     -1012.8874      0.08235516   
     37700   1639.7674     -193593.74      9770.7822     -183822.96      23177.041      1205.7126      0.084751337  
     37800   1634.8376     -193790.13      9741.4074     -184048.72      23208.589     -853.3122       0.086237184  
     37900   1653.8402     -193550.79      9854.6374     -183696.15      23151.551      1464.8694      0.093336153  
     38000   1608.5543     -193624.79      9584.7949     -184039.99      23226.812     -1967.6285      0.089487363  
Loop time of 169.652 on 32 procs for 2000 steps with 2000 atoms

Performance: 1.019 ns/day, 23.563 hours/ns, 11.789 timesteps/s, 23.578 katom-step/s
99.7% CPU use with 32 MPI tasks x no OpenMP threads

MPI task timing breakdown:
Section |  min time  |  avg time  |  max time  |%varavg| %total
---------------------------------------------------------------
Pair    | 161.21     | 163.87     | 166.61     |  10.5 | 96.59
Neigh   | 0          | 0          | 0          |   0.0 |  0.00
Comm    | 2.8073     | 5.5423     | 8.1944     |  56.8 |  3.27
Output  | 0.0056757  | 0.0057043  | 0.0060407  |   0.1 |  0.00
Modify  | 0.10878    | 0.12444    | 0.13329    |   2.2 |  0.07
Other   |            | 0.1138     |            |       |  0.07

Nlocal:           62.5 ave          77 max          55 min
Histogram: 5 4 3 5 9 5 0 0 0 1
Nghost:         4113.5 ave        4121 max        4099 min
Histogram: 1 0 0 0 3 11 5 3 4 5
Neighs:        54314.2 ave       66441 max       47994 min
Histogram: 5 4 3 5 11 3 0 0 0 1

Total # of neighbors = 1738056
Ave neighs/atom = 869.028
Neighbor list builds = 0
Dangerous builds = 0
next i
jump SELF loop_heating
variable i loop 151 260
variable Temp equal $i*10
variable Temp equal 165*10
fix 		1 all langevin ${Temp} ${Temp} 100 29345 zero yes
fix 		1 all langevin 1650 ${Temp} 100 29345 zero yes
fix 		1 all langevin 1650 1650 100 29345 zero yes
run 2000
Per MPI rank memory allocation (min/avg/max) = 81.94 | 82.08 | 82.23 Mbytes
   Step          Temp          PotEng         KinEng         TotEng         Volume         Press         c_msd[4]   
     38000   1608.5543     -193624.79      9584.7949     -184039.99      23226.812     -1967.6285      0.089487363  
     38100   1650.1413     -193482.87      9832.597      -183650.28      23151.697      1239.9249      0.095775277  
     38200   1667.1202     -193445.52      9933.7677     -183511.76      23232.954     -1720.1353      0.086365434  
     38300   1641.2605     -193002.02      9779.6796     -183222.34      23168.416      1503.8967      0.092171205  
     38400   1694.4176     -193341.15      10096.423     -183244.73      23267.319     -3238.6115      0.087732168  
     38500   1667.1554     -193266.35      9933.9777     -183332.37      23133.232      3404.1859      0.090065396  
     38600   1641.3485     -193311.64      9780.2034     -183531.44      23259.841     -3183.8363      0.084986621  
     38700   1678.9038     -193825.53      10003.982     -183821.54      23129.699      3682.0506      0.084940377  
     38800   1674.0987     -194003.16      9975.3501     -184027.81      23240.184     -2901.5639      0.080716353  
     38900   1684.4966     -193595.93      10037.308     -183558.62      23150.236      2517.8021      0.088347333  
     39000   1671.6353     -193235.83      9960.6717     -183275.16      23219.64      -666.82414      0.087307125  
     39100   1658.4798     -193343.36      9882.283      -183461.08      23174.251      1142.5441      0.089192722  
     39200   1654.6313     -192940.51      9859.3511     -183081.16      23234.69      -2293.7898      0.091652826  
     39300   1605.4664     -193327.31      9566.395      -183760.91      23180.582      667.56071      0.088116767  
     39400   1616.8637     -193267.74      9634.3077     -183633.43      23188.163     -871.35197      0.088237287  
     39500   1678.1084     -193484.3       9999.2425     -183485.06      23225.965     -1744.0021      0.085114478  
     39600   1657.2884     -193399.17      9875.1836     -183523.99      23150.714      2207.4357      0.091368866  
     39700   1642.8507     -193472.76      9789.1549     -183683.6       23247.224     -4111.0969      0.088008762  
     39800   1659.0105     -193707.99      9885.4452     -183822.55      23127.202      2679.1225      0.091755411  
     39900   1650.1476     -193385.85      9832.6345     -183553.22      23261.134     -4181.5488      0.085715782  
     40000   1629.099      -193400.09      9707.2131     -183692.88      23152.784      3369.8212      0.091942299  
Loop time of 170.04 on 32 procs for 2000 steps with 2000 atoms

Performance: 1.016 ns/day, 23.617 hours/ns, 11.762 timesteps/s, 23.524 katom-step/s
99.7% CPU use with 32 MPI tasks x no OpenMP threads

MPI task timing breakdown:
Section |  min time  |  avg time  |  max time  |%varavg| %total
---------------------------------------------------------------
Pair    | 159.06     | 163.56     | 166.11     |  12.2 | 96.19
Neigh   | 0          | 0          | 0          |   0.0 |  0.00
Comm    | 3.6787     | 6.2385     | 10.732     |  62.0 |  3.67
Output  | 0.0047852  | 0.0048159  | 0.0051564  |   0.1 |  0.00
Modify  | 0.10547    | 0.12687    | 0.14989    |   3.7 |  0.07
Other   |            | 0.1068     |            |       |  0.06

Nlocal:           62.5 ave          70 max          52 min
Histogram: 1 0 2 4 3 9 4 4 1 4
Nghost:         4113.5 ave        4124 max        4106 min
Histogram: 4 1 4 4 6 6 4 2 0 1
Neighs:          54181 ave       60546 max       45390 min
Histogram: 1 0 2 4 6 6 4 4 1 4

Total # of neighbors = 1733791
Ave neighs/atom = 866.8955
Neighbor list builds = 0
Dangerous builds = 0
next i
jump SELF loop_heating
variable i loop 151 260
variable Temp equal $i*10
variable Temp equal 166*10
fix 		1 all langevin ${Temp} ${Temp} 100 29345 zero yes
fix 		1 all langevin 1660 ${Temp} 100 29345 zero yes
fix 		1 all langevin 1660 1660 100 29345 zero yes
run 2000
Per MPI rank memory allocation (min/avg/max) = 81.75 | 81.82 | 81.94 Mbytes
   Step          Temp          PotEng         KinEng         TotEng         Volume         Press         c_msd[4]   
     40000   1629.099      -193400.09      9707.2131     -183692.88      23152.784      3369.8212      0.091942299  
     40100   1635.4895     -193077.79      9745.292      -183332.5       23219.934     -1296.6795      0.094744611  
     40200   1656.1538     -193562.53      9868.423      -183694.11      23180.645      1261.3846      0.086899093  
     40300   1647.2455     -193399.42      9815.342      -183584.08      23199.605      777.06243      0.087995535  
     40400   1600.5771     -193607.4       9537.2614     -184070.14      23193.065     -594.05031      0.089587885  
     40500   1700.4489     -193658.73      10132.362     -183526.37      23180.399      1182.2762      0.084867013  
     40600   1693.7727     -193435.14      10092.58      -183342.56      23198.381      322.11027      0.086365033  
     40700   1677.7845     -193657.2       9997.3126     -183659.89      23162.173      1611.9786      0.08674528   
     40800   1677.2519     -193559.82      9994.1392     -183565.68      23219.969     -1874.9668      0.087188993  
     40900   1680.2225     -193562.5       10011.84      -183550.66      23165.366      1851.8394      0.087748245  
     41000   1686.275      -193180.14      10047.904     -183132.24      23227.425     -705.60652      0.089496522  
     41100   1698.505      -193602.17      10120.779     -183481.39      23175.625      1495.185       0.085248045  
     41200   1677.9209     -193501.35      9998.1254     -183503.22      23216.726     -920.58709      0.085250351  
     41300   1678.2595     -193699.58      10000.143     -183699.43      23180.079      477.38762      0.084103522  
     41400   1662.3633     -193605.85      9905.4235     -183700.43      23214.77      -699.04458      0.087253661  
     41500   1643.2391     -193456.55      9791.4689     -183665.08      23158.216      1992.9288      0.089855222  
     41600   1645.479      -193534.46      9804.8156     -183729.65      23218.002     -1421.7806      0.088258674  
     41700   1627.5182     -193041.27      9697.7936     -183343.48      23161.759      1182.5438      0.092667687  
     41800   1718.6193     -193885.53      10240.632     -183644.9       23230.326     -1770.7875      0.08087504   
     41900   1619.5057     -193211.36      9650.0504     -183561.31      23162.11       946.68586      0.090391129  
     42000   1683.0288     -193222.4       10028.562     -183193.84      23206.262     -889.04361      0.090224812  
Loop time of 167.968 on 32 procs for 2000 steps with 2000 atoms

Performance: 1.029 ns/day, 23.329 hours/ns, 11.907 timesteps/s, 23.814 katom-step/s
99.7% CPU use with 32 MPI tasks x no OpenMP threads

MPI task timing breakdown:
Section |  min time  |  avg time  |  max time  |%varavg| %total
---------------------------------------------------------------
Pair    | 160.09     | 163.2      | 165.08     |  11.1 | 97.16
Neigh   | 0          | 0          | 0          |   0.0 |  0.00
Comm    | 2.6692     | 4.532      | 7.6194     |  66.5 |  2.70
Output  | 0.0051308  | 0.0051558  | 0.0054986  |   0.1 |  0.00
Modify  | 0.10044    | 0.12499    | 0.15083    |   4.3 |  0.07
Other   |            | 0.1084     |            |       |  0.06

Nlocal:           62.5 ave          68 max          54 min
Histogram: 1 0 5 4 1 5 1 6 3 6
Nghost:         4113.5 ave        4122 max        4108 min
Histogram: 6 3 6 1 4 2 4 5 0 1
Neighs:        54304.6 ave       59136 max       47061 min
Histogram: 1 0 5 4 2 4 2 5 3 6

[...]
run 2000
Per MPI rank memory allocation (min/avg/max) = 80.68 | 80.98 | 81.31 Mbytes
   Step          Temp          PotEng         KinEng         TotEng         Volume         Press         c_msd[4]   
    620000   648.75538     -200170.12      3865.6993     -196304.42      23057.808     -3325.0359      0.040448853  
    620100   644.95534     -200181.23      3843.0562     -196338.17      22953.762      3376.591       0.047168847  
    620200   652.82947     -200183.47      3889.9753     -196293.49      23044.37      -2446.2385      0.039726529  
    620300   626.79431     -200173.65      3734.8412     -196438.81      22982.68       1499.4961      0.043859781  
    620400   614.14175     -200291.17      3659.4492     -196631.72      23014.992     -832.82802      0.043654196  
    620500   640.04644     -200385.63      3813.8059     -196571.82      23008.666     -100.8299       0.042554028  
    620600   623.48024     -200209.9       3715.0939     -196494.8       22986.947      1078.9242      0.04454238   
    620700   642.81312     -200314.44      3830.2915     -196484.15      23042.177     -2075.3427      0.039850571  
    620800   631.80107     -200336.64      3764.6747     -196571.97      22966.437      2721.6403      0.045394738  
    620900   630.04284     -200251.99      3754.198      -196497.79      23046.585     -2537.5362      0.040706441  
    621000   630.56868     -200207.77      3757.3313     -196450.43      22979.806      1709.4815      0.042932448  
    621100   644.28225     -200153.19      3839.0455     -196314.15      23020.7       -967.87926      0.041804677  
    621200   637.10315     -200232.85      3796.2678     -196436.59      23005.115     -199.77339      0.044293537  
    621300   647.06565     -200336.16      3855.6308     -196480.53      22995.995      520.9341       0.043101024  
    621400   650.73403     -200176.02      3877.4894     -196298.53      23020.962     -1006.442       0.043115964  
    621500   634.99312     -200257.4       3783.6949     -196473.7       22984.839      1247.5496      0.043934416  
    621600   642.38208     -200257.47      3827.7231     -196429.75      23028.691     -1400.2205      0.040918121  
    621700   629.99525     -200299.56      3753.9144     -196545.65      22976.336      1731.0153      0.04499581   
    621800   622.58248     -200259.82      3709.7444     -196550.08      23025.575     -1425.6147      0.04291422   
    621900   651.04929     -200278.08      3879.3679     -196398.72      22991.783      1040.5074      0.045751501  
    622000   643.18455     -200260.9       3832.5048     -196428.39      23012.262     -167.13592      0.044725222  
Loop time of 160.822 on 32 procs for 2000 steps with 2000 atoms

Performance: 1.074 ns/day, 22.336 hours/ns, 12.436 timesteps/s, 24.872 katom-step/s
99.8% CPU use with 32 MPI tasks x no OpenMP threads

MPI task timing breakdown:
Section |  min time  |  avg time  |  max time  |%varavg| %total
---------------------------------------------------------------
Pair    | 152.52     | 156.37     | 158.6      |  11.8 | 97.23
Neigh   | 0          | 0          | 0          |   0.0 |  0.00
Comm    | 1.9991     | 4.2159     | 8.0476     |  71.7 |  2.62
Output  | 0.0049666  | 0.004995   | 0.0053324  |   0.1 |  0.00
Modify  | 0.10874    | 0.12378    | 0.13963    |   2.6 |  0.08
Other   |            | 0.1108     |            |       |  0.07

Nlocal:           62.5 ave          68 max          54 min
Histogram: 1 2 0 3 3 7 3 6 3 4
Nghost:         4113.5 ave        4122 max        4108 min
Histogram: 4 3 6 3 5 5 3 0 2 1
Neighs:        54487.3 ave       59177 max       47274 min
Histogram: 1 2 0 3 3 7 3 6 3 4

Total # of neighbors = 1743593
Ave neighs/atom = 871.7965
Neighbor list builds = 0
Dangerous builds = 0
next i
jump SELF loop_cooling
variable i loop 1 200
variable Temp equal (260-$i)*10
variable Temp equal (260-197)*10
fix 		1 all langevin ${Temp} ${Temp} 100 29345 zero yes
fix 		1 all langevin 630 ${Temp} 100 29345 zero yes
fix 		1 all langevin 630 630 100 29345 zero yes
run 2000
Per MPI rank memory allocation (min/avg/max) = 80.68 | 80.98 | 81.31 Mbytes
   Step          Temp          PotEng         KinEng         TotEng         Volume         Press         c_msd[4]   
    622000   643.18455     -200260.9       3832.5048     -196428.39      23012.262     -167.13592      0.044725222  
    622100   631.11433     -200309.37      3760.5827     -196548.79      23001.16       5.3773335      0.045255069  
    622200   649.39271     -200300.18      3869.4969     -196430.68      22998.238      243.53051      0.042490616  
    622300   630.58582     -200131.8       3757.4335     -196374.36      23016.974     -751.93171      0.043428167  
    622400   630.6769      -200220.87      3757.9762     -196462.89      22998.689      620.42027      0.043055628  
    622500   646.6069      -200404.13      3852.8973     -196551.23      23010.218     -192.8595       0.041313545  
    622600   627.33637     -200248.5       3738.0711     -196510.43      23003.579     -55.78327       0.043104554  
    622700   605.8607      -200418.86      3610.1054     -196808.75      23008.848     -505.774        0.042501834  
    622800   621.46497     -200367.4       3703.0856     -196664.31      23002.756     -48.062238      0.043237582  
    622900   617.06877     -200312.16      3676.8902     -196635.27      23016.567     -806.10772      0.040682986  
    623000   620.55955     -200328.77      3697.6905     -196631.08      22991.02       556.44774      0.041951823  
    623100   606.23793     -200321.08      3612.3531     -196708.73      23010.007     -805.77854      0.042186479  
    623200   637.49029     -200341.27      3798.5747     -196542.7       23001.804      310.70651      0.042130953  
    623300   628.31162     -200313.43      3743.8823     -196569.55      23007.328     -201.00025      0.041972176  
    623400   633.7636      -200348.23      3776.3687     -196571.86      23001.809      251.93042      0.042131047  
    623500   608.28376     -200338.04      3624.5435     -196713.5       23000.449      2.6616646      0.044907431  
    623600   639.28086     -200461.3       3809.2441     -196652.06      23015.819     -534.1884       0.043322918  
    623700   634.85519     -200369.3       3782.8731     -196586.43      22985.597      1659.9054      0.04389291   
    623800   625.31389     -200363.77      3726.0199     -196637.75      23037.571     -1783.6583      0.039684726  
    623900   637.26593     -200149.01      3797.2378     -196351.77      22977.395      1594.2566      0.04393899   
    624000   636.36209     -200201.69      3791.8522     -196409.83      23038.777     -1944.9499      0.042377892  
Loop time of 160.619 on 32 procs for 2000 steps with 2000 atoms

Performance: 1.076 ns/day, 22.308 hours/ns, 12.452 timesteps/s, 24.904 katom-step/s
99.8% CPU use with 32 MPI tasks x no OpenMP threads

MPI task timing breakdown:
Section |  min time  |  avg time  |  max time  |%varavg| %total
---------------------------------------------------------------
Pair    | 152.37     | 156.02     | 158.15     |  12.3 | 97.14
Neigh   | 0          | 0          | 0          |   0.0 |  0.00
Comm    | 2.2483     | 4.3576     | 7.9985     |  73.2 |  2.71
Output  | 0.0046485  | 0.0046783  | 0.0050153  |   0.1 |  0.00
Modify  | 0.10716    | 0.12642    | 0.13749    |   2.7 |  0.08
Other   |            | 0.1092     |            |       |  0.07

Nlocal:           62.5 ave          68 max          56 min
Histogram: 3 2 4 1 2 6 5 2 2 5
Nghost:         4113.5 ave        4120 max        4108 min
Histogram: 5 2 2 5 4 4 1 4 2 3
Neighs:        54593.3 ave       59258 max       49061 min
Histogram: 3 2 4 1 3 5 5 2 2 5

Total # of neighbors = 1746985
Ave neighs/atom = 873.4925
Neighbor list builds = 0
Dangerous builds = 0
next i
jump SELF loop_cooling
variable i loop 1 200
variable Temp equal (260-$i)*10
variable Temp equal (260-198)*10
fix 		1 all langevin ${Temp} ${Temp} 100 29345 zero yes
fix 		1 all langevin 620 ${Temp} 100 29345 zero yes
fix 		1 all langevin 620 620 100 29345 zero yes
run 2000
Per MPI rank memory allocation (min/avg/max) = 80.68 | 80.98 | 81.31 Mbytes
   Step          Temp          PotEng         KinEng         TotEng         Volume         Press         c_msd[4]   
    624000   636.36209     -200201.69      3791.8522     -196409.83      23038.777     -1944.9499      0.042377892  
    624100   622.22576     -200340.33      3707.6189     -196632.72      22966.097      2349.6127      0.047100722  
    624200   621.88345     -200497.3       3705.5792     -196791.72      23030.832     -1491.6959      0.039236274  
    624300   632.9736      -200451.67      3771.6613     -196680.01      22986.35       1214.2301      0.04368772   
    624400   594.62725     -200422.33      3543.1693     -196879.16      23007.249     -670.57606      0.042811713  
    624500   595.45798     -200486         3548.1193     -196937.88      23019.041     -1446.09        0.039575319  
    624600   610.81176     -200395.18      3639.607      -196755.57      22965.023      2281.6697      0.043771146  
    624700   615.11141     -200463.3       3665.227      -196798.07      23051.455     -3072.2713      0.038542302  
    624800   621.48749     -200388.27      3703.2198     -196685.05      22943.427      3681.2188      0.046159454  
    624900   630.1292      -200312.04      3754.7126     -196557.33      23062.726     -3660.6024      0.039294732  
    625000   623.17316     -200426.45      3713.2641     -196713.19      22944.916      3917.4575      0.045092163  
    625100   615.73241     -200260.2       3668.9274     -196591.27      23038.791     -2477.137       0.04071005   
    625200   635.5048      -200392.62      3786.7439     -196605.88      22994.229      965.50288      0.043085561  
    625300   652.26955     -200426.28      3886.639      -196539.64      22982.117      1837.473       0.043616816  
    625400   632.06998     -200446.54      3766.277      -196680.26      23041.872     -2178.8864      0.040910231  
    625500   619.366       -200461.44      3690.5786     -196770.86      22949.378      3836.1868      0.04293986   
    625600   611.43523     -200467.12      3643.322      -196823.8       23057.729     -3529.8645      0.03998506   
    625700   624.49006     -200440.65      3721.111      -196719.54      22954.896      3532.5217      0.047548057  
    625800   616.74963     -200408.77      3674.9886     -196733.78      23033.495     -1963.9489      0.042578145  
    625900   598.18861     -200514.84      3564.3901     -196950.45      22990.582      811.55389      0.041827862  
    626000   625.5562      -200554.09      3727.4638     -196826.62      22986.739      1114.273       0.041635104  
Loop time of 160.21 on 32 procs for 2000 steps with 2000 atoms

Performance: 1.079 ns/day, 22.251 hours/ns, 12.484 timesteps/s, 24.967 katom-step/s
99.8% CPU use with 32 MPI tasks x no OpenMP threads

MPI task timing breakdown:
Section |  min time  |  avg time  |  max time  |%varavg| %total
---------------------------------------------------------------
Pair    | 152.17     | 155.83     | 158.04     |  11.6 | 97.27
Neigh   | 0          | 0          | 0          |   0.0 |  0.00
Comm    | 1.9298     | 4.1421     | 7.7915     |  71.1 |  2.59
Output  | 0.005068   | 0.0050934  | 0.0054098  |   0.1 |  0.00
Modify  | 0.10806    | 0.12199    | 0.13708    |   2.6 |  0.08
Other   |            | 0.1067     |            |       |  0.07

Nlocal:           62.5 ave          70 max          54 min
Histogram: 1 5 0 3 5 8 1 1 3 5
Nghost:         4113.5 ave        4122 max        4106 min
Histogram: 5 3 1 1 5 8 3 0 5 1
Neighs:        54525.9 ave       60849 max       47394 min
Histogram: 1 5 0 3 8 5 1 1 3 5

Total # of neighbors = 1744829
Ave neighs/atom = 872.4145
Neighbor list builds = 0
Dangerous builds = 0
next i
jump SELF loop_cooling
variable i loop 1 200
variable Temp equal (260-$i)*10
variable Temp equal (260-199)*10
fix 		1 all langevin ${Temp} ${Temp} 100 29345 zero yes
fix 		1 all langevin 610 ${Temp} 100 29345 zero yes
fix 		1 all langevin 610 610 100 29345 zero yes
run 2000
Per MPI rank memory allocation (min/avg/max) = 80.68 | 80.98 | 81.31 Mbytes
   Step          Temp          PotEng         KinEng         TotEng         Volume         Press         c_msd[4]   
    626000   625.5562      -200554.09      3727.4638     -196826.62      22986.739      1114.273       0.041635104  
    626100   620.68484     -200417.42      3698.4371     -196718.99      23028.578     -1621.7697      0.041483553  
    626200   632.42974     -200409.11      3768.4207     -196640.69      22962.212      2348.9121      0.043521679  
    626300   643.17441     -200416.07      3832.4443     -196583.63      23053.727     -3186.2373      0.040395429  
    626400   619.0261      -200322.44      3688.5532     -196633.88      22959.443      2536.2615      0.045662795  
    626500   623.41774     -200384.38      3714.7214     -196669.66      23037.303     -2011.6818      0.039104998  
    626600   609.34002     -200458.93      3630.8374     -196828.1       22979.255      1552.8178      0.042522229  
    626700   612.84765     -200499.42      3651.7381     -196847.68      23013.865     -769.58228      0.041270125  
    626800   622.19226     -200478.75      3707.4192     -196771.33      22999.988      465.56333      0.04241869   
    626900   601.16194     -200400.22      3582.1072     -196818.12      22992.67       787.40433      0.042120217  
    627000   629.38701     -200389.52      3750.2902     -196639.23      23030.395     -1457.3984      0.039521375  
    627100   629.57833     -200371.73      3751.4302     -196620.3       22966.388      2697.5819      0.043040317  
    627200   606.59836     -200460.11      3614.5008     -196845.61      23043.385     -2528.6234      0.039657483  
    627300   600.962       -200460.29      3580.9158     -196879.38      22961.715      2455.9691      0.044928928  
    627400   631.40448     -200484.32      3762.3116     -196722         23034.74      -1763.8009      0.04160858   
    627500   619.792       -200506.71      3693.117      -196813.59      22982.144      1709.9904      0.044433417  
    627600   617.28337     -200459.91      3678.1689     -196781.74      23013.05      -435.22283      0.041817333  
    627700   606.42583     -200333.15      3613.4727     -196719.68      23011.234     -543.10322      0.042758212  
    627800   621.26129     -200394.06      3701.872      -196692.18      22978.677      1495.406       0.042102047  
    627900   635.8926      -200398.52      3789.0546     -196609.46      23029.441     -1467.0985      0.040262692  
    628000   617.0378      -200375.14      3676.7057     -196698.44      22970.524      2357.9345      0.045019568  
Loop time of 160.337 on 32 procs for 2000 steps with 2000 atoms

Performance: 1.078 ns/day, 22.269 hours/ns, 12.474 timesteps/s, 24.948 katom-step/s
99.8% CPU use with 32 MPI tasks x no OpenMP threads

MPI task timing breakdown:
Section |  min time  |  avg time  |  max time  |%varavg| %total
---------------------------------------------------------------
Pair    | 152.05     | 155.8      | 158.1      |  11.2 | 97.17
Neigh   | 0          | 0          | 0          |   0.0 |  0.00
Comm    | 1.9929     | 4.2988     | 8.033      |  67.4 |  2.68
Output  | 0.0050514  | 0.0050792  | 0.0054262  |   0.1 |  0.00
Modify  | 0.10648    | 0.12305    | 0.14016    |   2.8 |  0.08
Other   |            | 0.1109     |            |       |  0.07

Nlocal:           62.5 ave          70 max          55 min
Histogram: 2 2 1 6 5 1 11 1 1 2
Nghost:         4113.5 ave        4121 max        4106 min
Histogram: 2 1 1 7 5 5 6 0 3 2
Neighs:        54637.8 ave       60910 max       48291 min
Histogram: 2 2 1 6 5 3 9 1 1 2

Total # of neighbors = 1748408
Ave neighs/atom = 874.204
Neighbor list builds = 0
Dangerous builds = 0
next i
jump SELF loop_cooling
variable i loop 1 200
variable Temp equal (260-$i)*10
variable Temp equal (260-200)*10
fix 		1 all langevin ${Temp} ${Temp} 100 29345 zero yes
fix 		1 all langevin 600 ${Temp} 100 29345 zero yes
fix 		1 all langevin 600 600 100 29345 zero yes
run 2000
Per MPI rank memory allocation (min/avg/max) = 80.68 | 80.98 | 81.31 Mbytes
   Step          Temp          PotEng         KinEng         TotEng         Volume         Press         c_msd[4]   
    628000   617.0378      -200375.14      3676.7057     -196698.44      22970.524      2357.9345      0.045019568  
    628100   626.30111     -200494.44      3731.9024     -196762.54      23039.812     -2319.4851      0.040171113  
    628200   595.69577     -200449.86      3549.5362     -196900.33      22962.029      2277.2439      0.04496859   
    628300   606.19561     -200407.94      3612.101      -196795.84      23029.758     -1616.5956      0.04057835   
    628400   601.3535      -200351.88      3583.2486     -196768.63      22990.7        642.73901      0.042559877  
    628500   616.16613     -200518.71      3671.5117     -196847.2       23002.756      202.70008      0.039273265  
    628600   596.83902     -200499.92      3556.3484     -196943.57      23008.519     -549.65658      0.041625434  
    628700   591.10966     -200497.49      3522.2092     -196975.28      22980.614      1333.9149      0.042725959  
    628800   602.89529     -200600.47      3592.4356     -197008.04      23031.176     -1541.6861      0.040005403  
    628900   606.26079     -200589.09      3612.4894     -196976.6       22965.958      2139.8377      0.043128344  
    629000   588.79384     -200476.27      3508.4101     -196967.86      23032.778     -2308.7055      0.040512532  
    629100   600.96092     -200522.17      3580.9093     -196941.26      22971.405      2033.9584      0.041944289  
    629200   602.82068     -200660.17      3591.991      -197068.18      23011.259     -440.20613      0.039681179  
    629300   596.52414     -200590.55      3554.4721     -197036.08      23004.805     -155.68253      0.04090894   
    629400   602.76774     -200497.1       3591.6755     -196905.42      22980.221      1240.635       0.043703742  
    629500   600.20122     -200572.8       3576.3826     -196996.42      23026.575     -1521.2468      0.039691927  
    629600   597.57845     -200490.25      3560.7544     -196929.49      22975.558      1779.5216      0.043765112  
    629700   592.65684     -200509.71      3531.4283     -196978.28      23034.199     -2046.9551      0.039325934  
    629800   619.13362     -200507.41      3689.1939     -196818.22      22967.598      2477.7165      0.043828339  
    629900   590.3612      -200557.85      3517.7494     -197040.1       23021.933     -1326.0851      0.041233154  
    630000   601.43699     -200564.17      3583.7461     -196980.42      22982.16       1184.005       0.042760999  
Loop time of 160.253 on 32 procs for 2000 steps with 2000 atoms

Performance: 1.078 ns/day, 22.257 hours/ns, 12.480 timesteps/s, 24.960 katom-step/s
99.8% CPU use with 32 MPI tasks x no OpenMP threads

MPI task timing breakdown:
Section |  min time  |  avg time  |  max time  |%varavg| %total
---------------------------------------------------------------
Pair    | 151.74     | 155.57     | 157.89     |  11.4 | 97.08
Neigh   | 0          | 0          | 0          |   0.0 |  0.00
Comm    | 2.1327     | 4.4395     | 8.2535     |  67.2 |  2.77
Output  | 0.004916   | 0.004936   | 0.005289   |   0.1 |  0.00
Modify  | 0.10565    | 0.12492    | 0.14426    |   3.6 |  0.08
Other   |            | 0.1108     |            |       |  0.07

Nlocal:           62.5 ave          68 max          56 min
Histogram: 2 0 2 6 4 5 3 3 3 4
Nghost:         4113.5 ave        4120 max        4108 min
Histogram: 4 3 3 3 1 8 6 2 0 2
Neighs:        54660.5 ave       59318 max       49105 min
Histogram: 2 0 2 6 4 5 3 3 3 4

Total # of neighbors = 1749137
Ave neighs/atom = 874.5685
Neighbor list builds = 0
Dangerous builds = 0
next i
jump SELF loop_cooling

Total wall time: 14:36:04
