LAMMPS (28 Mar 2023 - Development)
KOKKOS mode is enabled (src/KOKKOS/kokkos.cpp:106)
  will use up to 1 GPU(s) per node
  using 1 OpenMP thread(s) per MPI task
Lattice spacing in x,y,z = 1.1655347 2.0187654 1.1655347
Created orthogonal box = (0 0 -0.58276737) to (58.276737 40.375308 0.58276737)
  1 by 1 by 1 MPI processor grid
Created 361 atoms
  using lattice units in orthogonal box = (0 0 -0.58276737) to (58.276737 40.375308 0.58276737)
  create_atoms CPU = 0.002 seconds
Finding 1-2 1-3 1-4 neighbors ...
  special bond factors lj:    0        1        1       
  special bond factors coul:  0        1        1       
     0 = max # of 1-2 neighbors
     1 = max # of special neighbors
  special bonds CPU = 0.000 seconds
Generated 0 of 0 mixed pair_coeff terms from geometric mixing rule
Neighbor list info ...
  update: every = 1 steps, delay = 0 steps, check = yes
  max neighbors/atom: 2000, page size: 100000
  master list distance cutoff = 2.8
  ghost atom cutoff = 2.8
  binsize = 2.8, bins = 21 15 1
  2 neighbor lists, perpetual/occasional/extra = 1 1 0
  (1) command create_bonds, occasional
      attributes: full, newton on
      pair build: full/bin
      stencil: full/bin/2d
      bin: standard
  (2) pair lj/cut/kk, perpetual
      attributes: half, newton on, kokkos_device
      pair build: half/bin/newton/kk/device
      stencil: half/bin/2d
      bin: kk/device
Added 1014 bonds, new total = 1014
Finding 1-2 1-3 1-4 neighbors ...
  special bond factors lj:    0        1        1       
  special bond factors coul:  0        1        1       
     6 = max # of 1-2 neighbors
     6 = max # of special neighbors
  special bonds CPU = 0.001 seconds
Generated 0 of 0 mixed pair_coeff terms from geometric mixing rule
Neighbor list info ...
  update: every = 1 steps, delay = 0 steps, check = yes
  max neighbors/atom: 2000, page size: 100000
  master list distance cutoff = 2.8
  ghost atom cutoff = 10
  binsize = 2.8, bins = 21 15 1
  1 neighbor lists, perpetual/occasional/extra = 1 0 0
  (1) pair lj/cut/kk, perpetual
      attributes: half, newton on, kokkos_device
      pair build: half/bin/newton/kk/device
      stencil: half/bin/2d
      bin: kk/device
Setting up Verlet run ...
  Unit style    : lj
  Current step  : 0
  Time step     : 0.005
Per MPI rank memory allocation (min/avg/max) = 4.985 | 4.985 | 4.985 Mbytes
   Step          Temp          E_pair         Press         f_10[3]          f_10     
         0   25.701528     -2.2032569      3.1039469      1              1            
      1000   37.339206     -24.747259      6.0075902      1              1            
      2000   25.662137     -13.91157       0.75995878     1              1            
      3000   21.396556     -12.865579     -0.80925133     1              1            
      4000   22.812512     -10.489181      0.58381193     1              1            
      5000   21.798209     -10.418314      0.094235108    1              1            
      6000   22.139292     -11.208391      0.96846102     1              1            
      7000   22.112959     -9.9853871      0.46667666     1              1            
      8000   23.026122     -9.9942726      0.52772358     1              1            
      9000   23.919857     -11.563732      0.17670291     1              1            
     10000   22.63099      -10.631183      0.53647167     1              1            
Loop time of 13.4715 on 1 procs for 10000 steps with 361 atoms

Performance: 320677.709 tau/day, 742.310 timesteps/s, 267.974 katom-step/s
100.0% CPU use with 1 MPI tasks x 1 OpenMP threads

MPI task timing breakdown:
Section |  min time  |  avg time  |  max time  |%varavg| %total
---------------------------------------------------------------
Pair    | 0.63251    | 0.63251    | 0.63251    |   0.0 |  4.70
Bond    | 0.6721     | 0.6721     | 0.6721     |   0.0 |  4.99
Neigh   | 2.893      | 2.893      | 2.893      |   0.0 | 21.48
Comm    | 4.4199     | 4.4199     | 4.4199     |   0.0 | 32.81
Output  | 0.00046173 | 0.00046173 | 0.00046173 |   0.0 |  0.00
Modify  | 3.401      | 3.401      | 3.401      |   0.0 | 25.25
Other   |            | 1.452      |            |       | 10.78

Nlocal:            361 ave         361 max         361 min
Histogram: 1 0 0 0 0 0 0 0 0 0
Nghost:              0 ave           0 max           0 min
Histogram: 1 0 0 0 0 0 0 0 0 0
Neighs:           2626 ave        2626 max        2626 min
Histogram: 1 0 0 0 0 0 0 0 0 0

Total # of neighbors = 2626
Ave neighs/atom = 7.2742382
Ave special neighs/atom = 5.6177285
Neighbor list builds = 4861
Dangerous builds = 0
Total wall time: 0:00:13
