LAMMPS (15 Sep 2022)
KOKKOS mode is enabled (src/KOKKOS/kokkos.cpp:106)
  will use up to 1 GPU(s) per node
  using 1 OpenMP thread(s) per MPI task
package kokkos
package kokkos newton on neigh half
units metal
newton on
boundary p p m
atom_style atomic

# Graphene lattice
lattice custom 2.419         a1    0                 1.0     0             a2    $(sqrt(3)/2)      0.5     0             a3    $(1/(2*sqrt(3)))  0.5     0.83          basis 0                 0       0             basis $(1/3)            $(1/3)  0.0
lattice custom 2.419         a1    0                 1.0     0             a2    0.86602540378443859659      0.5     0             a3    $(1/(2*sqrt(3)))  0.5     0.83          basis 0                 0       0             basis $(1/3)            $(1/3)  0.0
lattice custom 2.419         a1    0                 1.0     0             a2    0.86602540378443859659      0.5     0             a3    0.28867513459481292104  0.5     0.83          basis 0                 0       0             basis $(1/3)            $(1/3)  0.0
lattice custom 2.419         a1    0                 1.0     0             a2    0.86602540378443859659      0.5     0             a3    0.28867513459481292104  0.5     0.83          basis 0                 0       0             basis 0.33333333333333331483            $(1/3)  0.0
lattice custom 2.419         a1    0                 1.0     0             a2    0.86602540378443859659      0.5     0             a3    0.28867513459481292104  0.5     0.83          basis 0                 0       0             basis 0.33333333333333331483            0.33333333333333331483  0.0
Lattice spacing in x,y,z = 2.7932206 4.838 2.00777

# Simulation box & atoms
region simreg block 5 15 5 15 0 0.5
region boxreg block 0 20 0 20 -5 5
create_box 1 boxreg
Created orthogonal box = (0 0 -10.03885) to (55.864412 96.76 10.03885)
  1 by 1 by 1 MPI processor grid
create_atoms 1 region simreg basis 1 1
Created 554 atoms
  using lattice units in orthogonal box = (0 0 -10.03885) to (55.864412 96.76 10.03885)
  create_atoms CPU = 0.001 seconds

# Pull part of the sheet
region PB_region block INF INF 65.0 INF INF 1 units box # Pull block
group PB region PB_region
95 atoms in group PB
group integrate subtract all PB
459 atoms in group integrate
fix move_PB PB move linear 0 2 0 units box

# Dynamics
mass 1 12.0107

velocity integrate create 1.0 5432373 dist gaussian
pair_style tersoff
pair_coeff * * C.tersoff C

timestep 0.001
fix nve integrate nve

# Output
thermo 1000
dump 1 all custom 100 dump_reproduce.data id type x y z vx vy vz
run 25000
Neighbor list info ...
  update: every = 1 steps, delay = 0 steps, check = yes
  max neighbors/atom: 2000, page size: 100000
  master list distance cutoff = 4.1
  ghost atom cutoff = 4.1
  binsize = 4.1, bins = 14 24 5
  1 neighbor lists, perpetual/occasional/extra = 1 0 0
  (1) pair tersoff/kk, perpetual
      attributes: full, newton on, kokkos_device
      pair build: full/bin/kk/device
      stencil: full/bin/3d
      bin: kk/device
WARNING: Fixes cannot yet send exchange data in Kokkos communication, switching to classic exchange/border communication (src/KOKKOS/comm_kokkos.cpp:651)
Per MPI rank memory allocation (min/avg/max) = 1.928 | 1.928 | 1.928 Mbytes
   Step          Temp          E_pair         E_mol          TotEng         Press          Volume    
         0   0.82820976    -3818.7281      0             -3818.6689      15661.267      108528.81    
      1000   429.74474     -3852.928       0             -3822.2095      2082.2905      108528.81    
      2000   422.34868     -3846.8936      0             -3816.7038      2351.9428      108528.81    
      3000   417.70919     -3846.8932      0             -3817.035       2546.6295      108528.81    
      4000   409.94564     -3846.2178      0             -3816.9145      2427.5653      108528.81    
      5000   426.59751     -3845.8486      0             -3815.355       3437.4604      108528.81    
      6000   418.52133     -3846.7358      0             -3816.8195      2758.265       108528.81    
      7000   435.21846     -3846.9872      0             -3815.8774      3271.3845      108528.81    
      8000   416.48075     -3846.2715      0             -3816.5011      2713.59        108528.81    
      9000   414.54492     -3846.58        0             -3816.9479      3543.1733      108528.81    
     10000   434.23176     -3846.8789      0             -3815.8397      2566.7912      108528.81    
     11000   423.5166      -3845.521       0             -3815.2476      3500.9248      108528.81    
     12000   411.50594     -3845.6091      0             -3816.1943      3384.3883      108528.81    
     13000   411.11145     -3846.0022      0             -3816.6156      3564.8472      108528.81    
     14000   417.09316     -3846.9368      0             -3817.1227      3155.7982      108528.81    
     15000   420.22746     -3846.0887      0             -3816.0505      2797.1992      108528.81    
     16000   398.50526     -3844.4235      0             -3815.938       2506.4294      108528.81    
     17000   437.92268     -3846.2506      0             -3814.9475      2888.7403      108528.81    
     18000   426.83013     -3846.6134      0             -3816.1033      3737.1209      108528.81    
     19000   413.45278     -3845.9181      0             -3816.3642      3004.297       108528.81    
     20000   433.68717     -3846.7123      0             -3815.7119      3160.8071      108528.81    
     21000   402.5915      -3844.5997      0             -3815.8221      3751.1398      108528.81    
     22000   414.34197     -3844.9098      0             -3815.2923      2482.2742      108528.81    
     23000   419.13175     -3845.2534      0             -3815.2935      2883.4553      108528.81    
     24000   414.3829      -3845.0874      0             -3815.4669      2953.2759      108528.81    
     25000   422.52589     -3845.5553      0             -3815.3528      2991.5113      108528.81    
Loop time of 8.5091 on 1 procs for 25000 steps with 554 atoms

Performance: 253.846 ns/day, 0.095 hours/ns, 2938.032 timesteps/s, 1.628 Matom-step/s
99.5% CPU use with 1 MPI tasks x 1 OpenMP threads

MPI task timing breakdown:
Section |  min time  |  avg time  |  max time  |%varavg| %total
---------------------------------------------------------------
Pair    | 4.0709     | 4.0709     | 4.0709     |   0.0 | 47.84
Neigh   | 0.067782   | 0.067782   | 0.067782   |   0.0 |  0.80
Comm    | 0.41794    | 0.41794    | 0.41794    |   0.0 |  4.91
Output  | 0.13157    | 0.13157    | 0.13157    |   0.0 |  1.55
Modify  | 3.2664     | 3.2664     | 3.2664     |   0.0 | 38.39
Other   |            | 0.5546     |            |       |  6.52

Nlocal:            554 ave         554 max         554 min
Histogram: 1 0 0 0 0 0 0 0 0 0
Nghost:             81 ave          81 max          81 min
Histogram: 1 0 0 0 0 0 0 0 0 0
Neighs:              0 ave           0 max           0 min
Histogram: 1 0 0 0 0 0 0 0 0 0
FullNghs:         9022 ave        9022 max        9022 min
Histogram: 1 0 0 0 0 0 0 0 0 0

Total # of neighbors = 9022
Ave neighs/atom = 16.285199
Neighbor list builds = 450
Dangerous builds = 0
Total wall time: 0:00:09
