LAMMPS (28 Mar 2023 - Development)
KOKKOS mode is enabled (src/KOKKOS/kokkos.cpp:106)
  will use up to 1 GPU(s) per node
  using 1 OpenMP thread(s) per MPI task
Lattice spacing in x,y,z = 10 10 10
Created orthogonal box = (0 0 -5) to (300 300 5)
  1 by 1 by 1 MPI processor grid
Created 900 atoms
  using lattice units in orthogonal box = (0 0 -5) to (300 300 5)
  create_atoms CPU = 0.002 seconds
Setting atom values ...
  861 settings made for type/fraction
Setting atom values ...
  39 settings made for mass
Setting atom values ...
  861 settings made for mass

CITE-CITE-CITE-CITE-CITE-CITE-CITE-CITE-CITE-CITE-CITE-CITE-CITE

Your simulation uses code contributions which should be cited:
- neighbor multi command: doi:10.1016/j.cpc.2008.03.005, doi:10.1007/s40571-020-00361-2
The log file lists these citations in BibTeX format.

CITE-CITE-CITE-CITE-CITE-CITE-CITE-CITE-CITE-CITE-CITE-CITE-CITE

Generated 0 of 1 mixed pair_coeff terms from geometric mixing rule
Neighbor list info ...
  update: every = 1 steps, delay = 0 steps, check = yes
  max neighbors/atom: 2000, page size: 100000
  master list distance cutoff = 13.5
  ghost atom cutoff = 13.5
  binsize = 13.5, bins = 23 23 1
  1 neighbor lists, perpetual/occasional/extra = 1 0 0
  (1) pair colloid, perpetual
      attributes: half, newton on
      pair build: half/multi/newton
      stencil: half/multi/2d
      bin: multi
Setting up Verlet run ...
  Unit style    : lj
  Current step  : 0
  Time step     : 0.005
WARNING: Required border comm not yet implemented in Kokkos communication, switching to classic exchange/border communication (src/KOKKOS/comm_kokkos.cpp:900)
Per MPI rank memory allocation (min/avg/max) = 4.677 | 4.677 | 4.677 Mbytes
   Step          Temp          E_pair         TotEng         Press          Volume    
         0   1.44          -2.2136534e-06  1.4383978      0.014383923    90000        
      1000   1.440976      -2.2136534e-06  1.4393727      0.013432154    95925.507    
      2000   1.4411953     -2.2136534e-06  1.4395917      0.014905291    85992.206    
      3000   1.4413575     -2.2136534e-06  1.4397538      0.022229057    57354.675    
      4000   1.4413533     -2.2136534e-06  1.4397496      0.036899655    34363.254    
      5000   1.4412724     -2.2136534e-06  1.4396687      0.057077883    22092.184    
      6000   1.4411934     -2.2136534e-06  1.4395899      0.078688044    15935.835    
      7000   1.4411391     -2.2136534e-06  1.4395356      0.098959538    12600.771    
      8000   1.4411066     -2.2136534e-06  1.4395032      0.11742576     10559.803    
      9000   1.4410882     -2.2136534e-06  1.4394848      0.13479547     9147.4292    
     10000   1.4410772     -2.2136534e-06  1.4394738      0.15189033     8072.1252    
     11000   1.4410696     -2.2136534e-06  1.4394662      0.16923145     7203.9006    
     12000   1.4410634     -2.2136534e-06  1.43946        0.18702068     6481.5111    
     13000   1.4410577     -2.2136534e-06  1.4394543      0.20525194     5871.9402    
     14000   1.4410523     -2.2136534e-06  1.4394489      0.22382551     5353.6251    
     15000   1.4410472     -2.2136534e-06  1.4394438      0.24262477     4910.1703    
     16000   1.4410425     -2.2136534e-06  1.4394391      0.26155388     4528.2461    
     17000   1.4410381     -2.2136534e-06  1.4394348      0.28054825     4196.8967    
     18000   1.4410341     -2.2136534e-06  1.4394308      0.29957087     3907.2026    
     19000   1.4410305     -2.2136534e-06  1.4394271      0.31860379     3651.9856    
     20000   1.4410271     -2.2136534e-06  1.4394238      0.33764004     3425.5093    
     21000   1.4410241     -2.2136534e-06  1.4394207      0.35667781     3223.1945    
     22000   1.4410212     -2.2136534e-06  1.4394178      0.375717       3041.3715    
     23000   1.4410185     -2.2136534e-06  1.4394152      0.39475758     2877.0776    
     24000   1.441016      -2.2136534e-06  1.4394127      0.413799       2727.8983    
     25000   1.4410136     -2.2136534e-06  1.4394103      0.43284015     2591.8461    
     26000   1.4410114     -2.2136534e-06  1.439408       0.4518796      2467.2693    
     27000   1.4410092     -2.2136534e-06  1.4394059      0.47091572     2352.7827    
     28000   1.4410072     -2.2136534e-06  1.4394038      0.48994691     2247.2152    
     29000   1.4410052     -2.2136534e-06  1.4394019      0.50897164     2149.5697    
     30000   1.4410033     -2.2136534e-06  1.4394         0.52798849     2058.9918    
     31000   1.4410015     -2.2136534e-06  1.4393981      0.54699618     1974.7449    
     32000   1.4409997     -2.2136534e-06  1.4393964      0.56599358     1896.1911    
     33000   1.440998      -2.2136534e-06  1.4393947      0.58497961     1822.7748    
     34000   1.4409963     -2.2136534e-06  1.439393       0.60395333     1754.0101    
     35000   1.4409947     -2.2136534e-06  1.4393914      0.62291382     1689.4703    
     36000   1.4409932     -2.2136534e-06  1.4393898      0.64186025     1628.7792    
     37000   1.4409916     -2.2136534e-06  1.4393883      0.6607918      1571.6037    
     38000   1.4409901     -2.2136534e-06  1.4393868      0.6797077      1517.6482    
     39000   1.4409887     -2.2136534e-06  1.4393854      0.69860719     1466.6489    
     40000   1.4409873     -2.2136534e-06  1.4393839      0.71748954     1418.3703    
     41000   1.4409859     -2.2136534e-06  1.4393825      0.73635403     1372.6009    
     42000   1.4409845     -2.2136534e-06  1.4393812      0.75519993     1329.1508    
     43000   1.4409831     -2.2136534e-06  1.4393798      0.77402655     1287.8486    
     44000   1.4409818     -2.2136534e-06  1.4393785      0.79283316     1248.5394    
     45000   1.4409805     -2.2136534e-06  1.4393772      0.81161907     1211.0828    
     46000   1.4409792     -2.2136534e-06  1.4393759      0.83038355     1175.3513    
     47000   1.4409779     -2.2136534e-06  1.4393746      0.84912589     1141.2287    
     48000   1.4409767     -2.2136534e-06  1.4393734      0.86784536     1108.6092    
     49000   1.4409755     -2.2136534e-06  1.4393722      0.88654123     1077.3959    
     50000   1.4409743     -2.2136534e-06  1.439371       0.90521275     1047.5001    
Loop time of 37.3018 on 1 procs for 50000 steps with 900 atoms

Performance: 579060.610 tau/day, 1340.418 timesteps/s, 1.206 Matom-step/s
100.0% CPU use with 1 MPI tasks x 1 OpenMP threads

MPI task timing breakdown:
Section |  min time  |  avg time  |  max time  |%varavg| %total
---------------------------------------------------------------
Pair    | 6.596      | 6.596      | 6.596      |   0.0 | 17.68
Neigh   | 0          | 0          | 0          |   0.0 |  0.00
Comm    | 6.8277     | 6.8277     | 6.8277     |   0.0 | 18.30
Output  | 0.0014465  | 0.0014465  | 0.0014465  |   0.0 |  0.00
Modify  | 23.375     | 23.375     | 23.375     |   0.0 | 62.66
Other   |            | 0.5019     |            |       |  1.35

Nlocal:            900 ave         900 max         900 min
Histogram: 1 0 0 0 0 0 0 0 0 0
Nghost:             68 ave          68 max          68 min
Histogram: 1 0 0 0 0 0 0 0 0 0
Neighs:              3 ave           3 max           3 min
Histogram: 1 0 0 0 0 0 0 0 0 0

Total # of neighbors = 3
Ave neighs/atom = 0.0033333333
Neighbor list builds = 0
Dangerous builds = 0
Total wall time: 0:00:37
