LAMMPS (28 Mar 2023 - Development)
KOKKOS mode is enabled (src/KOKKOS/kokkos.cpp:106)
  using 1 OpenMP thread(s) per MPI task
Lattice spacing in x,y,z = 10 10 10
Created orthogonal box = (0 0 -5) to (300 300 5)
  1 by 1 by 1 MPI processor grid
Created 900 atoms
  using lattice units in orthogonal box = (0 0 -5) to (300 300 5)
  create_atoms CPU = 0.003 seconds
Setting atom values ...
  861 settings made for type/fraction
Setting atom values ...
  39 settings made for mass
Setting atom values ...
  861 settings made for mass

CITE-CITE-CITE-CITE-CITE-CITE-CITE-CITE-CITE-CITE-CITE-CITE-CITE

Your simulation uses code contributions which should be cited:
- neighbor multi command: doi:10.1016/j.cpc.2008.03.005, doi:10.1007/s40571-020-00361-2
The log file lists these citations in BibTeX format.

CITE-CITE-CITE-CITE-CITE-CITE-CITE-CITE-CITE-CITE-CITE-CITE-CITE

Generated 0 of 1 mixed pair_coeff terms from geometric mixing rule
Neighbor list info ...
  update: every = 1 steps, delay = 0 steps, check = yes
  max neighbors/atom: 2000, page size: 100000
  master list distance cutoff = 13.5
  ghost atom cutoff = 13.5
  binsize = 1.75, bins = 172 172 6
  1 neighbor lists, perpetual/occasional/extra = 1 0 0
  (1) pair colloid, perpetual
      attributes: half, newton on
      pair build: half/multi/newton
      stencil: half/multi/2d
      bin: multi
Setting up Verlet run ...
  Unit style    : lj
  Current step  : 0
  Time step     : 0.005
Per MPI rank memory allocation (min/avg/max) = 4.811 | 4.811 | 4.811 Mbytes
   Step          Temp          E_pair         TotEng         Press          Volume    
         0   1.44          -2.2136534e-06  1.4383978      0.014383923    90000        
      1000   1.9572809     -0.00036743274  1.9547388      0.017982269    98935.161    
      2000   2.068567      -0.0010518227   2.0652168      0.019466739    96307.439    
      3000   2.1787472      0.0045846363   2.180911       0.029249545    68560.31     
      4000   2.1979309      0.0017234058   2.1972121      0.048831814    42699.657    
      5000   2.1541368      0.0068842503   2.1586276      0.07471981     28571.492    
      6000   2.111318       0.0024189699   2.1113911      0.091799665    21611.61     
      7000   2.078952       0.0060036924   2.0826458      0.1163485      17868.764    
      8000   2.0644839      0.0046364548   2.0668265      0.12916006     15516.79     
      9000   2.0523636      0.0091813954   2.0592646      0.14896995     13861.461    
     10000   2.0508939      0.01021276     2.0588278      0.16792897     12544.762    
     11000   2.0400018      0.017964674    2.0556998      0.20008709     11445.721    
     12000   2.0211055      0.0332141      2.0520739      0.25486023     10546.116    
     13000   1.9987823      0.055135095    2.0516965      0.27355774     9792.1432    
     14000   2.0232373      0.034463503    2.0554527      0.28658532     9127.2968    
     15000   2.0323164      0.024434903    2.0544932      0.27503216     8565.3817    
     16000   2.011162       0.041650633    2.050578       0.30217732     8095.9488    
     17000   2.0240606      0.025534617    2.0473463      0.30289984     7696.4088    
     18000   2.0291923      0.023538775    2.0504764      0.32167843     7373.0142    
     19000   2.0243941      0.02718237     2.0493271      0.34561083     7061.8304    
     20000   2.0387445      0.017462315    2.0539415      0.38599051     6786.8674    
     21000   2.0204635      0.039642443    2.057861       0.40453997     6506.8596    
     22000   2.0196841      0.036172208    2.0536123      0.42220492     6277.6523    
     23000   2.0062138      0.046867246    2.0508519      0.45341126     6074.3979    
     24000   2.0186857      0.035000894    2.0514437      0.44867062     5902.4956    
     25000   2.0148338      0.042004852    2.0545999      0.5138624      5737.2218    
     26000   2.0046428      0.059573122    2.0619885      0.54127817     5566.1888    
     27000   2.0273111      0.033540384    2.0585989      0.50573952     5405.8047    
     28000   2.0288368      0.036037726    2.0626202      0.52567317     5274.4928    
     29000   2.0225621      0.03689995     2.0572148      0.5798328      5171.6387    
     30000   2.0061521      0.052305554    2.0562286      0.57420164     5097.8437    
     31000   2.0112249      0.057036824    2.0660271      0.60633119     4959.067     
     32000   2.0078996      0.055483237    2.0611519      0.64235927     4853.6169    
     33000   2.0060672      0.06066201     2.0645002      0.63232941     4761.4919    
     34000   2.0201703      0.046072325    2.063998       0.63137293     4683.3238    
     35000   2.0316574      0.041974313    2.0713743      0.68233472     4606.9606    
     36000   2.0227431      0.056039       2.0765346      0.71641843     4494.5353    
     37000   2.0044879      0.077943344    2.0802041      0.79327483     4393.5854    
     38000   1.9809349      0.085916623    2.0646505      0.77787989     4373.338     
     39000   2.0048518      0.074754733    2.0773789      0.79773155     4317.918     
     40000   2.0107507      0.072249525    2.0807661      0.81591717     4235.6713    
     41000   2.0269464      0.059113309    2.0838076      0.81939714     4163.2504    
     42000   1.9973774      0.079539526    2.0746976      0.77573348     4127.2833    
     43000   2.0148621      0.073153199    2.0857766      0.82311463     4061.8586    
     44000   2.0367587      0.048335078    2.0828307      0.79227784     4015.2313    
     45000   1.9795323      0.1122464      2.0895792      1.0243571      3970.6929    
     46000   1.9902841      0.10583526     2.0939079      0.91696103     3888.4473    
     47000   2.0153158      0.070159331    2.0832359      0.93335986     3869.0313    
     48000   1.9861684      0.11135654     2.0953181      1.0601742      3812.6125    
     49000   1.9774383      0.11770049     2.0929416      1.0898658      3773.9591    
     50000   1.988816       0.11060315     2.0972094      1.0898922      3734.1494    
Loop time of 5.3457 on 1 procs for 50000 steps with 900 atoms

Performance: 4040634.385 tau/day, 9353.320 timesteps/s, 8.418 Matom-step/s
102.9% CPU use with 1 MPI tasks x 1 OpenMP threads

MPI task timing breakdown:
Section |  min time  |  avg time  |  max time  |%varavg| %total
---------------------------------------------------------------
Pair    | 1.7422     | 1.7422     | 1.7422     |   0.0 | 32.59
Neigh   | 0.60176    | 0.60176    | 0.60176    |   0.0 | 11.26
Comm    | 0.2605     | 0.2605     | 0.2605     |   0.0 |  4.87
Output  | 0.0003093  | 0.0003093  | 0.0003093  |   0.0 |  0.01
Modify  | 2.0221     | 2.0221     | 2.0221     |   0.0 | 37.83
Other   |            | 0.7188     |            |       | 13.45

Nlocal:            900 ave         900 max         900 min
Histogram: 1 0 0 0 0 0 0 0 0 0
Nghost:            608 ave         608 max         608 min
Histogram: 1 0 0 0 0 0 0 0 0 0
Neighs:           6192 ave        6192 max        6192 min
Histogram: 1 0 0 0 0 0 0 0 0 0

Total # of neighbors = 6192
Ave neighs/atom = 6.88
Neighbor list builds = 3095
Dangerous builds = 0
Total wall time: 0:00:05
