LAMMPS (28 Mar 2023 - Development)
KOKKOS mode is enabled (src/KOKKOS/kokkos.cpp:106)
  using 1 OpenMP thread(s) per MPI task
Lattice spacing in x,y,z = 1.1655347 2.0187654 1.1655347
Created orthogonal box = (0 0 -0.58276737) to (58.276737 40.375308 0.58276737)
  1 by 1 by 1 MPI processor grid
Created 361 atoms
  using lattice units in orthogonal box = (0 0 -0.58276737) to (58.276737 40.375308 0.58276737)
  create_atoms CPU = 0.001 seconds
Finding 1-2 1-3 1-4 neighbors ...
  special bond factors lj:    0        1        1       
  special bond factors coul:  0        1        1       
     0 = max # of 1-2 neighbors
     1 = max # of special neighbors
  special bonds CPU = 0.000 seconds
Generated 0 of 0 mixed pair_coeff terms from geometric mixing rule
Neighbor list info ...
  update: every = 1 steps, delay = 0 steps, check = yes
  max neighbors/atom: 2000, page size: 100000
  master list distance cutoff = 2.8
  ghost atom cutoff = 2.8
  binsize = 1.4, bins = 42 29 1
  2 neighbor lists, perpetual/occasional/extra = 1 1 0
  (1) command create_bonds, occasional
      attributes: full, newton on
      pair build: full/bin
      stencil: full/bin/2d
      bin: standard
  (2) pair lj/cut/kk, perpetual
      attributes: half, newton on, kokkos_device
      pair build: half/bin/newton/kk/device
      stencil: half/bin/2d
      bin: kk/device
Added 1014 bonds, new total = 1014
Finding 1-2 1-3 1-4 neighbors ...
  special bond factors lj:    0        1        1       
  special bond factors coul:  0        1        1       
     6 = max # of 1-2 neighbors
     6 = max # of special neighbors
  special bonds CPU = 0.000 seconds
Generated 0 of 0 mixed pair_coeff terms from geometric mixing rule
Neighbor list info ...
  update: every = 1 steps, delay = 0 steps, check = yes
  max neighbors/atom: 2000, page size: 100000
  master list distance cutoff = 2.8
  ghost atom cutoff = 10
  binsize = 1.4, bins = 42 29 1
  1 neighbor lists, perpetual/occasional/extra = 1 0 0
  (1) pair lj/cut/kk, perpetual
      attributes: half, newton on, kokkos_device
      pair build: half/bin/newton/kk/device
      stencil: half/bin/2d
      bin: kk/device
Setting up Verlet run ...
  Unit style    : lj
  Current step  : 0
  Time step     : 0.005
Per MPI rank memory allocation (min/avg/max) = 4.985 | 4.985 | 4.985 Mbytes
   Step          Temp          E_pair         Press         f_10[3]          f_10     
         0   25.701528     -2.2032569      3.1039469      1              1            
      1000   37.963253     -24.743737      5.6498975      1              1            
      2000   27.869491     -12.034949      1.1078772      1              1            
      3000   23.32872      -10.283115     -0.37380851     1              1            
      4000   25.294553     -9.9050207      1.0927995      1              1            
      5000   24.603273     -8.6758227      0.79048757     1              1            
      6000   25.920951     -10.825469      0.3987036      1              1            
      7000   25.159655     -8.5129217      0.71107549     1              1            
      8000   25.61359      -10.684398      0.27139645     1              1            
      9000   24.43867      -8.911992      -0.18015466     1              1            
     10000   25.89773      -8.0684734      0.86380843     1              1            
Loop time of 1.52723 on 1 procs for 10000 steps with 361 atoms

Performance: 2828651.473 tau/day, 6547.804 timesteps/s, 2.364 Matom-step/s
107.6% CPU use with 1 MPI tasks x 1 OpenMP threads

MPI task timing breakdown:
Section |  min time  |  avg time  |  max time  |%varavg| %total
---------------------------------------------------------------
Pair    | 0.23044    | 0.23044    | 0.23044    |   0.0 | 15.09
Bond    | 0.34746    | 0.34746    | 0.34746    |   0.0 | 22.75
Neigh   | 0.64284    | 0.64284    | 0.64284    |   0.0 | 42.09
Comm    | 0.042023   | 0.042023   | 0.042023   |   0.0 |  2.75
Output  | 0.00018603 | 0.00018603 | 0.00018603 |   0.0 |  0.01
Modify  | 0.19082    | 0.19082    | 0.19082    |   0.0 | 12.49
Other   |            | 0.07346    |            |       |  4.81

Nlocal:            361 ave         361 max         361 min
Histogram: 1 0 0 0 0 0 0 0 0 0
Nghost:              0 ave           0 max           0 min
Histogram: 1 0 0 0 0 0 0 0 0 0
Neighs:           2175 ave        2175 max        2175 min
Histogram: 1 0 0 0 0 0 0 0 0 0

Total # of neighbors = 2175
Ave neighs/atom = 6.0249307
Ave special neighs/atom = 5.6177285
Neighbor list builds = 4960
Dangerous builds = 10
Total wall time: 0:00:01
