LAMMPS (3 Nov 2022)
KOKKOS mode is enabled (../kokkos.cpp:106)
  will use up to 1 GPU(s) per node
package kokkos
package kokkos newton on neigh half
units 		real
atom_style      charge

lattice 	bcc 2.87
Lattice spacing in x,y,z = 2.87 2.87 2.87
region		bulto block -5 5 -5 5 -5 5
create_box      1 bulto
Created orthogonal box = (-14.35 -14.35 -14.35) to (14.35 14.35 14.35)
  1 by 1 by 1 MPI processor grid
create_atoms	1 region bulto
Created 2000 atoms
  using lattice units in orthogonal box = (-14.35 -14.35 -14.35) to (14.35 14.35 14.35)
  create_atoms CPU = 0.002 seconds

mass * 55.845
# Choose potential
pair_style      reax/c NULL checkqeq no
pair_coeff      * * CHOFeAlNiCuSCr_v3.ff Fe
WARNING: Changed valency_val to valency_boc for X (../reaxff_ffield.cpp:296)


#JR: Charge minimization
#fix             qeq all qeq/reax 1 0.0 10.0 1.0e-6 reax/c

neighbor   3.5 bin
neigh_modify    every 2 delay 4 check yes page 100000

velocity        all create 300.0 4928459 rot yes dist gaussian

compute         msd all msd

compute         Stress all stress/atom NULL virial
compute         pe all pe/atom
compute         ke all ke/atom



timestep        1
#fix nve      all nve
fix 		npt all nph iso 0 0 1000
#fix          press  all press/berendsen iso 0 0 1000


thermo          100
thermo_style custom step temp pe ke etotal vol press c_msd[4]
dump  mydump all custom 1000 dump.coordenadas id type q x y z vx vy vz c_pe c_ke c_Stress[1] c_Stress[2] c_Stress[3]

fix 		1 all langevin  300 1500 100 29345 zero yes
run 10000

CITE-CITE-CITE-CITE-CITE-CITE-CITE-CITE-CITE-CITE-CITE-CITE-CITE

Your simulation uses code contributions which should be cited:

- pair reaxff command: doi:10.1016/j.parco.2011.08.005

@Article{Aktulga12,
 author = {H. M. Aktulga and J. C. Fogarty and S. A. Pandit and A. Y. Grama},
 title = {Parallel Reactive Molecular Dynamics: {N}umerical Methods and Algorithmic Techniques},
 journal = {Parallel Computing},
 year =    2012,
 volume =  38,
 number =  {4--5},
 pages =   {245--259}
}

CITE-CITE-CITE-CITE-CITE-CITE-CITE-CITE-CITE-CITE-CITE-CITE-CITE

Neighbor list info ...
  update: every = 2 steps, delay = 4 steps, check = yes
  max neighbors/atom: 2000, page size: 100000
  master list distance cutoff = 13.5
  ghost atom cutoff = 13.5
  binsize = 13.5, bins = 3 3 3
  1 neighbor lists, perpetual/occasional/extra = 1 0 0
  (1) pair reax/c/kk, perpetual
      attributes: half, newton off, ghost, kokkos_device
      pair build: half/bin/ghost/kk/device
      stencil: full/ghost/bin/3d
      bin: kk/device
WARNING: Fixes cannot yet send exchange data in Kokkos communication, switching to classic exchange/border communication (../comm_kokkos.cpp:651)
Per MPI rank memory allocation (min/avg/max) = 65.98 | 65.98 | 65.98 Mbytes
   Step          Temp          PotEng         KinEng         TotEng         Volume         Press         c_msd[4]   
         0   300           -212644.23      1787.5918     -210856.64      23639.903     -43651.663      0            
       100   248.29145     -202676.63      1479.4792     -201197.15      22632.331      23099.388      0.052137     
       200   290.12456     -202396.58      1728.7476     -200667.83      23089.834     -8381.3953      0.023040715  
       300   320.23425     -202253.46      1908.1604     -200345.3       22946.329      1331.6924      0.030684393  
       400   341.7367      -202164.8       2036.2857     -200128.52      22938.685      2113.475       0.033152951  
       500   344.05073     -202035.51      2050.0742     -199985.44      23018.562     -3310.2991      0.033284029  
       600   364.61123     -201989.23      2172.5868     -199816.64      22926.804      3007.8455      0.037895053  
       700   389.1247      -201962.84      2318.6537     -199644.19      23008.801     -2162.4583      0.031372969  
       800   394.35823     -201867.87      2349.8384     -199518.03      22945.808      1977.9802      0.034411746  
       900   395.34601     -201748.3       2355.7243     -199392.58      22992.156     -1272.7975      0.034387089  
      1000   416.37883     -201791.07      2481.0513     -199310.02      22974.653      221.10693      0.034188803  
      1100   420.60963     -201653.51      2506.2611     -199147.25      22971.492      396.83881      0.03566812   
      1200   426.04782     -201576.55      2538.6653     -199037.88      22988.113     -518.34441      0.033830843  
      1300   426.98088     -201457.08      2544.2251     -198912.85      22969.147      499.9253       0.036230138  
      1400   469.07157     -201385.91      2795.0283     -198590.88      22990.104     -546.23149      0.037843475  
      1500   454.52704     -201328.12      2708.3627     -198619.76      22967.676      833.54312      0.038720872  
      1600   478.84226     -201295.94      2853.2483     -198442.69      22991.111     -316.64851      0.035764024  
      1700   489.48726     -201144.76      2916.678      -198228.08      22984.728      26.460321      0.036345262  
      1800   498.92191     -201009.19      2972.8957     -198036.3       22988.386      69.536024      0.037559602  
      1900   519.14582     -201034.22      3093.4027     -197940.82      22994.271     -300.57016      0.037838988  
      2000   519.49384     -200899.37      3095.4764     -197803.89      22991.657      156.90154      0.040246882  
      2100   533.00293     -200849.78      3175.9722     -197673.81      22992.783     -393.14248      0.039578347  
      2200   554.55991     -200738.01      3304.4225     -197433.59      23003.156     -546.70928      0.037110576  
      2300   547.2646      -200773.22      3260.9524     -197512.27      22983.066      765.94559      0.039878595  
      2400   565.51901     -200781.79      3369.7238     -197412.07      23007.562     -767.5653       0.039964222  
      2500   594.31702     -200668.27      3541.3207     -197126.95      22986.612      786.09979      0.042278988  
      2600   595.73801     -200485.47      3549.7879     -196935.68      23007.666     -175.8138       0.043362431  
      2700   602.59713     -200399.86      3590.659      -196809.2       23000.653      10.796911      0.043377908  
      2800   619.81685     -200470.57      3693.2651     -196777.31      23002.813      201.82404      0.044728628  
      2900   624.14741     -200316.64      3719.0693     -196597.57      23004.523      56.16914       0.044804745  
      3000   634.05622     -200210.27      3778.1123     -196432.16      23008.97      -143.65523      0.043678805  
      3100   651.46563     -200190.57      3881.8487     -196308.73      23004.537      195.33905      0.044676059  
      3200   661.69647     -200113.61      3942.8106     -196170.79      23010.931     -180.99048      0.041171947  
      3300   678.18173     -200066.23      4041.0403     -196025.19      23004.44       296.15446      0.042457454  
      3400   685.69194     -199925.24      4085.7909     -195839.45      23018.876     -556.07462      0.045134813  
      3500   704.17142     -199916.65      4195.9035     -195720.74      23012.554      408.52682      0.045132705  
      3600   721.88266     -199845.69      4301.4384     -195544.25      23015.013      271.10066      0.044646938  
      3700   726.0975      -199625.72      4326.5531     -195299.17      23030.351     -585.13793      0.047145197  
      3800   758.79528     -199659.05      4521.3874     -195137.66      22999.654      1343.7343      0.047592186  
      3900   766.77751     -199461.15      4568.9506     -194892.2       23043.456     -1361.4853      0.046469879  
      4000   755.40499     -199489.04      4501.1858     -194987.86      23005.561      1030.3379      0.048287335  
      4100   762.48182     -199424.43      4543.3542     -194881.07      23031.176     -352.16958      0.046831964  
      4200   782.23881     -199361.53      4661.0789     -194700.45      23022.181     -65.304924      0.048850362  
      4300   805.10305     -199289.68      4797.3187     -194492.36      23032.935      17.340903      0.047742908  
      4400   804.35658     -199171.95      4792.8707     -194379.08      23020.904      687.47246      0.050862157  
      4500   826.99952     -199157.26      4927.7918     -194229.47      23040.52      -333.54425      0.048581595  
      4600   825.54558     -199149.87      4919.1284     -194230.74      23030.146      361.10346      0.048650231  
      4700   846.39131     -198756.87      5043.3405     -193713.53      23045.258     -245.06573      0.050117522  
      4800   890.27978     -198691.07      5304.8561     -193386.21      23036.127      493.01064      0.050404559  
      4900   876.55759     -198648.41      5223.0905     -193425.32      23047.988     -666.72808      0.050000335  
      5000   883.31065     -198666.15      5263.3295     -193402.82      23035.178      512.12389      0.0520463    
      5100   908.57968     -198567.4       5413.8986     -193153.51      23050.247     -488.40716      0.054347547  
      5200   938.10145     -198505.64      5589.8081     -192915.83      23052.323     -175.64784      0.055967291  
      5300   941.84305     -198419.68      5612.103      -192807.58      23031.999      1750.754       0.055026027  
      5400   927.12796     -198651.95      5524.4211     -193127.53      23061.531     -770.68601      0.05315734   
      5500   945.48517     -198237.43      5633.8051     -192603.62      23038.745      940.38872      0.056654782  
      5600   967.54979     -197922.28      5765.2802     -192157         23059.435     -271.96371      0.058286537  
      5700   980.59765     -197970.68      5843.0277     -192127.66      23072.797     -1080.1958      0.059645449  
      5800   1002.75       -197712.07      5975.0255     -191737.05      23029.033      1573.9011      0.062064389  
      5900   1019.0032     -197779.71      6071.8724     -191707.84      23091.807     -1804.5296      0.055577757  
      6000   1031.4269     -197696.2       6145.9007     -191550.3       23041.429      1555.4403      0.060020076  
      6100   1044.9014     -197761.46      6226.1903     -191535.27      23084.728     -879.40408      0.057445531  
      6200   1063.2362     -197611.72      6335.4407     -191276.28      23053.893      884.81374      0.058016792  
      6300   1007.8699     -197626.02      6005.5334     -191620.49      23091.616     -1471.7595      0.057244379  
      6400   1079.3764     -197580.59      6431.6149     -191148.98      23054.608      1485.7418      0.059522773  
      6500   1074.9466     -197467.58      6405.2189     -191062.36      23085.327     -982.94464      0.061590282  
      6600   1075.3537     -197266.31      6407.645      -190858.66      23077.4       -101.74162      0.063124453  
      6700   1078.8589     -197296.08      6428.531      -190867.55      23071.232      452.15694      0.061392027  
      6800   1091.7394     -197055.44      6505.281      -190550.16      23104.422     -2570.2527      0.061452759  
      6900   1088.2101     -196973.54      6484.2514     -190489.29      23041.488      1360.8316      0.06597244   
      7000   1131.3834     -197343.59      6741.5057     -190602.08      23141.794     -3475.2285      0.059432818  
      7100   1146.4314     -196950.1       6831.1712     -190118.93      23000.125      5548.7904      0.068356974  
      7200   1128.2592     -196803.51      6722.8895     -190080.62      23173.612     -5262.4189      0.060236988  
      7300   1176.8978     -196749.82      7012.7097     -189737.11      23009.772      4435.9278      0.06914887   
      7400   1182.5188     -196770.38      7046.2033     -189724.18      23141.66      -2526.1096      0.06085187   
      7500   1173.381      -196527.38      6991.7541     -189535.63      23047.709      2748.9551      0.068296709  
      7600   1209.2105     -196650.83      7205.2492     -189445.58      23134.403     -1738.4419      0.061229641  
      7700   1209.5419     -196503.41      7207.2238     -189296.19      23068.992      1810.3783      0.064575568  
      7800   1237.9425     -196342.26      7376.4531     -188965.8       23118.323     -908.20471      0.065476895  
      7900   1249.3921     -196430.59      7444.677      -188985.92      23098.445      390.3133       0.063761465  
      8000   1249.0844     -196310.47      7442.8436     -188867.63      23091.939      1295.27        0.065146497  
      8100   1252.0382     -196212.22      7460.4443     -188751.78      23130.352     -1605.1037      0.069458424  
      8200   1255.5723     -196396.49      7481.5024     -188914.98      23064.388      2825.2537      0.071563597  
      8300   1264.799      -196214.23      7536.481      -188677.75      23145.642     -2443.7472      0.068094058  
      8400   1308.7267     -196008.69      7798.2303     -188210.46      23094.603      1495.7858      0.065024263  
      8500   1305.214      -195760.77      7777.2993     -187983.47      23131.882     -704.48488      0.067817209  
      8600   1365.1884     -195983.09      8134.6651     -187848.43      23124.326      354.67859      0.066924783  
      8700   1334.8023     -195658.25      7953.6055     -187704.64      23125.933     -83.562525      0.072882393  
      8800   1365.9862     -195687.67      8139.4187     -187548.25      23145.292     -1649.4073      0.073461195  
      8900   1339.626      -195502.44      7982.3484     -187520.09      23122.889      327.61575      0.076690184  
      9000   1361.0174     -195549.16      8109.812      -187439.35      23141.231     -607.53921      0.073410705  
      9100   1420.7364     -195250.73      8465.656      -186785.07      23117.357      1379.3252      0.075565579  
      9200   1414.127      -195305.64      8426.2728     -186879.36      23130.851      537.25719      0.07679342   
      9300   1452.2511     -195089.62      8653.4402     -186436.18      23146.081     -107.9945       0.079190875  
      9400   1350.3663     -195073.96      8046.3459     -187027.62      23128.618     -43.759201      0.076906804  
      9500   1393.222      -194643.34      8301.7072     -186341.63      23161.363     -1327.4238      0.076355813  
      9600   1399.7358     -194711.38      8340.5209     -186370.86      23150.125     -118.47655      0.076237362  
      9700   1462.2149     -194893.96      8712.8109     -186181.15      23157.995     -176.94437      0.076022525  
      9800   1445.1967     -195093.17      8611.4058     -186481.76      23121.854      1562.7047      0.078777593  
      9900   1431.4944     -194855.39      8529.7585     -186325.63      23153.933     -815.48839      0.083363503  
     10000   1458.4189     -194616.9       8690.1919     -185926.7       23155.197     -489.51492      0.084798882  
Loop time of 215.967 on 1 procs for 10000 steps with 2000 atoms

Performance: 4.001 ns/day, 5.999 hours/ns, 46.303 timesteps/s, 92.607 katom-step/s
100.0% CPU use with 1 MPI tasks x 1 OpenMP threads

MPI task timing breakdown:
Section |  min time  |  avg time  |  max time  |%varavg| %total
---------------------------------------------------------------
Pair    | 210.92     | 210.92     | 210.92     |   0.0 | 97.66
Neigh   | 0          | 0          | 0          |   0.0 |  0.00
Comm    | 0.7402     | 0.7402     | 0.7402     |   0.0 |  0.34
Output  | 0.11449    | 0.11449    | 0.11449    |   0.0 |  0.05
Modify  | 3.6125     | 3.6125     | 3.6125     |   0.0 |  1.67
Other   |            | 0.577      |            |       |  0.27

Nlocal:           2000 ave        2000 max        2000 min
Histogram: 1 0 0 0 0 0 0 0 0 0
Nghost:          12859 ave       12859 max       12859 min
Histogram: 1 0 0 0 0 0 0 0 0 0
Neighs:    1.29492e+06 ave 1.29492e+06 max 1.29492e+06 min
Histogram: 1 0 0 0 0 0 0 0 0 0

Total # of neighbors = 1294924
Ave neighs/atom = 647.462
Neighbor list builds = 0
Dangerous builds = 0


label loop_heating
variable i loop 151 260
variable Temp equal $i*10
variable Temp equal 151*10
fix 		1 all langevin ${Temp} ${Temp} 100 29345 zero yes
fix 		1 all langevin 1510 ${Temp} 100 29345 zero yes
fix 		1 all langevin 1510 1510 100 29345 zero yes
run 2000
Per MPI rank memory allocation (min/avg/max) = 107 | 107 | 107 Mbytes
   Step          Temp          PotEng         KinEng         TotEng         Volume         Press         c_msd[4]   
     10000   1458.4189     -194311.11      8690.1919     -185620.92      23155.197      530.91694      0.084798882  
     10100   1513.7572     -194583.09      9019.9331     -185563.16      23128.365      677.12054      0.083019554  
     10200   1493.2243     -194596.76      8897.5851     -185699.18      23200.771     -2046.5845      0.075329307  
     10300   1577.032      -194537.01      9396.9651     -185140.05      23110.225      4146.6325      0.077291168  
     10400   1515.2356     -194062.6       9028.7426     -185033.86      23215.638     -2871.82        0.076129748  
     10500   1551.0636     -194890.83      9242.2286     -185648.6       23128.401      1796.0985      0.078953629  
     10600   1471.5629     -194114.11      8768.5128     -185345.59      23185.521     -628.74385      0.083064947  
     10700   1556.9361     -194309.4       9277.2204     -185032.18      23154.787      1138.7177      0.080465891  
     10800   1544.4004     -194422.42      9202.5248     -185219.9       23173.662      297.15499      0.078642442  
     10900   1536.0761     -194651.23      9152.9233     -185498.31      23163.556      634.26769      0.077727409  
     11000   1514.0914     -194527.13      9021.9242     -185505.2       23170.27       407.45415      0.07805741   
     11100   1549.2371     -194433.2       9231.3453     -185201.85      23137.723      1598.5233      0.081136915  
     11200   1495.7743     -194613.68      8912.7796     -185700.9       23171.549     -274.68098      0.07714992   
     11300   1467.8899     -194217.22      8746.6264     -185470.6       23118.726      1154.3135      0.086008788  
     11400   1559.3889     -194287.1       9291.8362     -184995.27      23194.869     -1777.0071      0.083797653  
     11500   1518.3476     -194466.5       9047.2856     -185419.22      23116.654      2931.9401      0.085947717  
     11600   1466.5886     -194092.73      8738.8724     -185353.86      23197.695     -2316.6232      0.083558222  
     11700   1524.2011     -194129.12      9082.1646     -185046.96      23150.235      415.55662      0.082152023  
     11800   1479.9151     -194269.86      8818.2801     -185451.58      23178.293     -1505.2114      0.081261462  
     11900   1533.5153     -194484.81      9137.6646     -185347.15      23143.014      951.83583      0.083730285  
     12000   1522.3912     -194538.62      9071.3799     -185467.24      23189.09      -1989.3961      0.078477179  
Loop time of 48.3464 on 1 procs for 2000 steps with 2000 atoms

Performance: 3.574 ns/day, 6.715 hours/ns, 41.368 timesteps/s, 82.736 katom-step/s
100.0% CPU use with 1 MPI tasks x 1 OpenMP threads

MPI task timing breakdown:
Section |  min time  |  avg time  |  max time  |%varavg| %total
---------------------------------------------------------------
Pair    | 47.312     | 47.312     | 47.312     |   0.0 | 97.86
Neigh   | 0          | 0          | 0          |   0.0 |  0.00
Comm    | 0.15078    | 0.15078    | 0.15078    |   0.0 |  0.31
Output  | 0.023861   | 0.023861   | 0.023861   |   0.0 |  0.05
Modify  | 0.739      | 0.739      | 0.739      |   0.0 |  1.53
Other   |            | 0.1206     |            |       |  0.25

Nlocal:           2000 ave        2000 max        2000 min
Histogram: 1 0 0 0 0 0 0 0 0 0
Nghost:          12859 ave       12859 max       12859 min
Histogram: 1 0 0 0 0 0 0 0 0 0
Neighs:    1.30824e+06 ave 1.30824e+06 max 1.30824e+06 min
Histogram: 1 0 0 0 0 0 0 0 0 0

Total # of neighbors = 1308239
Ave neighs/atom = 654.1195
Neighbor list builds = 0
Dangerous builds = 0
next i
jump SELF loop_heating
variable i loop 151 260
variable Temp equal $i*10
variable Temp equal 152*10
fix 		1 all langevin ${Temp} ${Temp} 100 29345 zero yes
fix 		1 all langevin 1520 ${Temp} 100 29345 zero yes
fix 		1 all langevin 1520 1520 100 29345 zero yes
run 2000
Per MPI rank memory allocation (min/avg/max) = 107 | 107 | 107 Mbytes
   Step          Temp          PotEng         KinEng         TotEng         Volume         Press         c_msd[4]   
     12000   1522.3912     -194778.9       9071.3799     -185707.52      23189.09      -1987.7411      0.078477179  
     12100   1498.9391     -194296.3       8931.6372     -185364.67      23135.688      1692.817       0.087994668  
     12200   1535.2447     -194533.21      9147.9692     -185385.24      23174.133     -930.1268       0.079830404  
     12300   1559.6237     -194425.54      9293.235      -185132.3       23160.403      388.45424      0.078231219  
     12400   1545.7518     -194012.86      9210.5771     -184802.29      23154.053      583.54923      0.082971558  
     12500   1583.2529     -194419.96      9434.0332     -184985.93      23189.529      105.31761      0.083218384  
     12600   1532.6522     -194057.2       9132.5218     -184924.68      23134.287      1846.4266      0.092939389  
     12700   1500.0615     -194542.4       8938.3251     -185604.08      23221.543     -3216.3443      0.078220823  
     12800   1505.4068     -194639.49      8970.1759     -185669.32      23092.495      3678.2621      0.080866647  
     12900   1539.8844     -194674.92      9175.6159     -185499.3       23213.265     -2375.5111      0.07954267   
     13000   1540.3869     -194418.07      9178.6099     -185239.46      23101.564      3974.61        0.086533137  
     13100   1522.1065     -194492.45      9069.6834     -185422.76      23217.542     -3509.0841      0.080631719  
     13200   1554.3729     -194711.27      9261.9472     -185449.32      23119.165      2820.5928      0.078883388  
     13300   1511.3704     -194404.19      9005.7113     -185398.48      23187.146     -846.44612      0.078362346  
     13400   1545.8168     -194207.86      9210.9647     -184996.9       23128.966      2087.0618      0.083785771  
     13500   1517.2213     -194534.98      9040.5745     -185494.41      23186.565     -1413.6343      0.082618613  
     13600   1455.9957     -194296.56      8675.7532     -185620.81      23144.738     -133.93959      0.085094055  
     13700   1485.701      -194080.65      8852.7565     -185227.89      23164.014     -783.27858      0.081986154  
     13800   1506.2782     -194381.69      8975.3685     -185406.32      23150.121      274.78981      0.078672395  
     13900   1544.5605     -194413.25      9203.479      -185209.77      23144.467      1542.7831      0.080130215  
     14000   1538.4373     -194473.99      9166.9932     -185306.99      23198.473     -1563.489       0.077984813  
Loop time of 49.5811 on 1 procs for 2000 steps with 2000 atoms

Performance: 3.485 ns/day, 6.886 hours/ns, 40.338 timesteps/s, 80.676 katom-step/s
100.0% CPU use with 1 MPI tasks x 1 OpenMP threads

MPI task timing breakdown:
Section |  min time  |  avg time  |  max time  |%varavg| %total
---------------------------------------------------------------
Pair    | 48.442     | 48.442     | 48.442     |   0.0 | 97.70
Neigh   | 0          | 0          | 0          |   0.0 |  0.00
Comm    | 0.1772     | 0.1772     | 0.1772     |   0.0 |  0.36
Output  | 0.027963   | 0.027963   | 0.027963   |   0.0 |  0.06
Modify  | 0.80995    | 0.80995    | 0.80995    |   0.0 |  1.63
Other   |            | 0.1235     |            |       |  0.25

Nlocal:           2000 ave        2000 max        2000 min
Histogram: 1 0 0 0 0 0 0 0 0 0
Nghost:          12859 ave       12859 max       12859 min
Histogram: 1 0 0 0 0 0 0 0 0 0
Neighs:     1.3068e+06 ave  1.3068e+06 max  1.3068e+06 min
Histogram: 1 0 0 0 0 0 0 0 0 0

Total # of neighbors = 1306805
Ave neighs/atom = 653.4025
Neighbor list builds = 0
Dangerous builds = 0
next i
jump SELF loop_heating
variable i loop 151 260
variable Temp equal $i*10
variable Temp equal 153*10
fix 		1 all langevin ${Temp} ${Temp} 100 29345 zero yes
fix 		1 all langevin 1530 ${Temp} 100 29345 zero yes
fix 		1 all langevin 1530 1530 100 29345 zero yes
run 2000
Per MPI rank memory allocation (min/avg/max) = 107 | 107 | 107 Mbytes
   Step          Temp          PotEng         KinEng         TotEng         Volume         Press         c_msd[4]   
     14000   1538.4373     -194368.99      9166.9932     -185201.99      23198.473      461.83274      0.077984813  
     14100   1470.5945     -194510.13      8762.7419     -185747.39      23111.818      2553.3328      0.084812826  
     14200   1486.8422     -194562.09      8859.5564     -185702.53      23192.131     -2175.4039      0.079883541  
     14300   1556.09       -194488.62      9272.1791     -185216.44      23148.41       953.72625      0.080201162  
     14400   1559.7966     -194150.64      9294.2653     -184856.38      23203.174     -1559.9133      0.080834062  
     14500   1557.1684     -194183.26      9278.6051     -184904.65      23149.83       1118.621       0.088631528  
     14600   1531.4714     -194136.06      9125.4855     -185010.57      23172.205     -587.75723      0.086007776  
     14700   1594.8971     -194467.59      9503.4166     -184964.18      23161.559      671.16583      0.081836651  
     14800   1564.0257     -194444.33      9319.4652     -185124.86      23180.38      -55.461416      0.078449056  
     14900   1494.5829     -194192.76      8905.6802     -185287.08      23141.2        814.05499      0.083295662  
     15000   1510.0397     -194374         8997.7819     -185376.22      23191.577     -1854.8769      0.080540922  
     15100   1511.164      -194248.93      9004.481      -185244.45      23136.383      1063.1044      0.084066122  
     15200   1545.4972     -194600.34      9209.0601     -185391.28      23191.974     -1549.2456      0.075854589  
     15300   1487.3805     -194431.88      8862.7637     -185569.11      23161.865     -58.115417      0.082730323  
     15400   1558.0559     -194322.86      9283.8931     -185038.97      23151.94       757.1414       0.085412133  
     15500   1513.2216     -194185.03      9016.7418     -185168.29      23186.237     -1811.299       0.08707799   
     15600   1534.0508     -194276.61      9140.8551     -185135.75      23127.927      1404.9048      0.084989669  
     15700   1520.1592     -194001.65      9058.0803     -184943.57      23198.333     -2162.9996      0.080233285  
     15800   1585.2904     -194130.4       9446.1736     -184684.23      23136.452      1963.8159      0.083520164  
     15900   1587.8848     -194211.66      9461.633      -184750.03      23230.87      -3322.4047      0.081498557  
     16000   1546.166      -194243.52      9213.0456     -185030.47      23107.944      3122.0356      0.08270311   
Loop time of 48.3738 on 1 procs for 2000 steps with 2000 atoms

Performance: 3.572 ns/day, 6.719 hours/ns, 41.345 timesteps/s, 82.689 katom-step/s
100.1% CPU use with 1 MPI tasks x 1 OpenMP threads

MPI task timing breakdown:
Section |  min time  |  avg time  |  max time  |%varavg| %total
---------------------------------------------------------------
Pair    | 47.325     | 47.325     | 47.325     |   0.0 | 97.83
Neigh   | 0          | 0          | 0          |   0.0 |  0.00
Comm    | 0.16018    | 0.16018    | 0.16018    |   0.0 |  0.33
Output  | 0.022148   | 0.022148   | 0.022148   |   0.0 |  0.05
Modify  | 0.74708    | 0.74708    | 0.74708    |   0.0 |  1.54
Other   |            | 0.1197     |            |       |  0.25

Nlocal:           2000 ave        2000 max        2000 min
Histogram: 1 0 0 0 0 0 0 0 0 0
Nghost:          12859 ave       12859 max       12859 min
Histogram: 1 0 0 0 0 0 0 0 0 0
Neighs:     1.3069e+06 ave  1.3069e+06 max  1.3069e+06 min
Histogram: 1 0 0 0 0 0 0 0 0 0

Total # of neighbors = 1306898
Ave neighs/atom = 653.449
Neighbor list builds = 0
Dangerous builds = 0
next i
jump SELF loop_heating
variable i loop 151 260
variable Temp equal $i*10
variable Temp equal 154*10
fix 		1 all langevin ${Temp} ${Temp} 100 29345 zero yes
fix 		1 all langevin 1540 ${Temp} 100 29345 zero yes
fix 		1 all langevin 1540 1540 100 29345 zero yes
run 2000
Per MPI rank memory allocation (min/avg/max) = 107 | 107 | 107 Mbytes
   Step          Temp          PotEng         KinEng         TotEng         Volume         Press         c_msd[4]   
     16000   1546.166      -194816.95      9213.0456     -185603.91      23107.944      36.712109      0.08270311   
     16100   1512.0596     -194097.25      9009.8176     -185087.43      23205.543     -2132.1588      0.083452348  
     16200   1545.5554     -194408.39      9209.4073     -185198.98      23130.557      2261.8024      0.086430049  
     16300   1564.917      -194247.76      9324.7758     -184922.98      23194.086     -2078.1741      0.079300895  
     16400   1533.8006     -193684.75      9139.3644     -184545.39      23169.529      190.62878      0.086037754  
     16500   1560.0801     -194215.84      9295.9547     -184919.89      23165.326      675.91779      0.088445012  
     16600   1566.9673     -193944.13      9336.9928     -184607.13      23183.587      88.110473      0.090100963  
     16700   1571.9225     -194069.77      9366.519      -184703.25      23150.259      1695.3105      0.087969412  
     16800   1594.7293     -194358.22      9502.4168     -184855.8       23188.235     -947.76018      0.081463731  
     16900   1523.9255     -193804.71      9080.5225     -184724.19      23154.72       464.02206      0.087121463  
     17000   1549.9325     -194344.09      9235.4888     -185108.61      23191.264     -2172.2866      0.084585702  
     17100   1559.1667     -194396.75      9290.512      -185106.24      23150.215      1076.9654      0.083733213  
     17200   1490.5366     -194431.36      8881.5701     -185549.79      23173.163     -631.58299      0.079586593  
     17300   1493.2816     -194287.5       8897.9263     -185389.57      23156.51      -354.98118      0.083183882  
     17400   1533.1298     -194122.84      9135.3676     -184987.47      23172.037     -456.84104      0.086096136  
     17500   1555.2546     -194510.96      9267.2009     -185243.76      23136.479      1998.2518      0.086780146  
     17600   1507.1608     -194043.23      8980.6273     -185062.6       23196.51      -2681.3222      0.086628559  
     17700   1555.5621     -194019.82      9269.0333     -184750.78      23131.893      1765.6891      0.085482621  
     17800   1563.4021     -194189.47      9315.7489     -184873.72      23185.49      -598.77786      0.08116801   
     17900   1557.0679     -194175.76      9278.0058     -184897.76      23151.45       1036.5832      0.085404151  
     18000   1525.9142     -194114.26      9092.3726     -185021.89      23205.754     -2057.982       0.084743371  
Loop time of 49.8516 on 1 procs for 2000 steps with 2000 atoms

Performance: 3.466 ns/day, 6.924 hours/ns, 40.119 timesteps/s, 80.238 katom-step/s
100.0% CPU use with 1 MPI tasks x 1 OpenMP threads

MPI task timing breakdown:
Section |  min time  |  avg time  |  max time  |%varavg| %total
---------------------------------------------------------------
Pair    | 48.801     | 48.801     | 48.801     |   0.0 | 97.89
Neigh   | 0          | 0          | 0          |   0.0 |  0.00
Comm    | 0.1584     | 0.1584     | 0.1584     |   0.0 |  0.32
Output  | 0.023709   | 0.023709   | 0.023709   |   0.0 |  0.05
Modify  | 0.74769    | 0.74769    | 0.74769    |   0.0 |  1.50
Other   |            | 0.121      |            |       |  0.24

Nlocal:           2000 ave        2000 max        2000 min
Histogram: 1 0 0 0 0 0 0 0 0 0
Nghost:          12859 ave       12859 max       12859 min
Histogram: 1 0 0 0 0 0 0 0 0 0
Neighs:     1.3108e+06 ave  1.3108e+06 max  1.3108e+06 min
Histogram: 1 0 0 0 0 0 0 0 0 0

Total # of neighbors = 1310797
Ave neighs/atom = 655.3985
Neighbor list builds = 0
Dangerous builds = 0
next i
jump SELF loop_heating
variable i loop 151 260
variable Temp equal $i*10
variable Temp equal 155*10
fix 		1 all langevin ${Temp} ${Temp} 100 29345 zero yes
fix 		1 all langevin 1550 ${Temp} 100 29345 zero yes
fix 		1 all langevin 1550 1550 100 29345 zero yes
run 2000
Per MPI rank memory allocation (min/avg/max) = 107 | 107 | 107 Mbytes
   Step          Temp          PotEng         KinEng         TotEng         Volume         Press         c_msd[4]   
     18000   1525.9142     -194249.99      9092.3726     -185157.62      23205.754     -2648.114       0.084743371  
     18100   1509.3082     -193825.32      8993.4232     -184831.89      23138.561      1147.7052      0.09359879   
     18200   1538.3453     -194411.15      9166.4448     -185244.71      23183.11      -899.18444      0.084250991  
     18300   1538.8558     -194332.14      9169.4868     -185162.65      23151.167      778.04175      0.079389248  
     18400   1520.6012     -193750.61      9060.7142     -184689.9       23195.068     -1509.843       0.087180199  
     18500   1622.5128     -194081.59      9667.9684     -184413.63      23157.213      1423.9611      0.089110579  
     18600   1547.0794     -193888.59      9218.4879     -184670.1       23175.244     -429.81116      0.091062688  
     18700   1591.5371     -193872.29      9483.3954     -184388.89      23185.56      -860.56719      0.08360301   
     18800   1563.0757     -194138.3       9313.8046     -184824.49      23169.658     -132.7352       0.083663867  
     18900   1553.024      -194012.41      9253.91       -184758.5       23170.358      233.75638      0.084269824  
     19000   1598.6657     -194262.92      9525.8723     -184737.04      23165.598      456.43276      0.080446172  
     19100   1567.1553     -194154.53      9338.1132     -184816.42      23173.409     -304.16164      0.0850222    
     19200   1546.1942     -194248.07      9213.2134     -185034.86      23140.489      2107.5008      0.079610018  
     19300   1541.6857     -193999.05      9186.3492     -184812.7       23200.866     -2060.621       0.083654681  
     19400   1599.9422     -194027.16      9533.4787     -184493.69      23138.048      2529.9157      0.084629026  
     19500   1541.5128     -194046.32      9185.3186     -184861         23190.198     -1530.0185      0.08557688   
     19600   1508.5632     -194135.2       8988.9841     -185146.22      23138.29       1125.6117      0.085712137  
     19700   1495.3989     -193926.22      8910.5427     -185015.67      23219.24      -3710.5125      0.081956261  
     19800   1511.7185     -193853.67      9007.7855     -184845.89      23130.352      2058.8547      0.087793129  
     19900   1544.8902     -194149.48      9205.4435     -184944.03      23206.623     -1621.5646      0.080275067  
     20000   1570.9086     -194156.24      9360.4779     -184795.76      23151.718      1165.4318      0.080554387  
Loop time of 48.9062 on 1 procs for 2000 steps with 2000 atoms

Performance: 3.533 ns/day, 6.793 hours/ns, 40.895 timesteps/s, 81.789 katom-step/s
100.0% CPU use with 1 MPI tasks x 1 OpenMP threads

MPI task timing breakdown:
Section |  min time  |  avg time  |  max time  |%varavg| %total
---------------------------------------------------------------
Pair    | 47.87      | 47.87      | 47.87      |   0.0 | 97.88
Neigh   | 0          | 0          | 0          |   0.0 |  0.00
Comm    | 0.15425    | 0.15425    | 0.15425    |   0.0 |  0.32
Output  | 0.023188   | 0.023188   | 0.023188   |   0.0 |  0.05
Modify  | 0.73937    | 0.73937    | 0.73937    |   0.0 |  1.51
Other   |            | 0.1196     |            |       |  0.24

Nlocal:           2000 ave        2000 max        2000 min
Histogram: 1 0 0 0 0 0 0 0 0 0
Nghost:          12859 ave       12859 max       12859 min
Histogram: 1 0 0 0 0 0 0 0 0 0
Neighs:     1.3056e+06 ave  1.3056e+06 max  1.3056e+06 min
Histogram: 1 0 0 0 0 0 0 0 0 0

Total # of neighbors = 1305604
Ave neighs/atom = 652.802
Neighbor list builds = 0
Dangerous builds = 0
next i
jump SELF loop_heating
variable i loop 151 260
variable Temp equal $i*10
variable Temp equal 156*10
fix 		1 all langevin ${Temp} ${Temp} 100 29345 zero yes
fix 		1 all langevin 1560 ${Temp} 100 29345 zero yes
fix 		1 all langevin 1560 1560 100 29345 zero yes
run 2000
Per MPI rank memory allocation (min/avg/max) = 107 | 107 | 107 Mbytes
   Step          Temp          PotEng         KinEng         TotEng         Volume         Press         c_msd[4]   
     20000   1570.9086     -194060.87      9360.4779     -184700.39      23151.718     -507.3617       0.080554387  
     20100   1574.2628     -194166.97      9380.4641     -184786.5       23188.636     -647.31165      0.084100212  
     20200   1544.5796     -194347.85      9203.5926     -185144.26      23126.104      2662.6164      0.085693997  
     20300   1572.6092     -194009.97      9370.6109     -184639.36      23224.398     -2277.4003      0.078528271  
     20400   1567.6377     -193992.72      9340.9877     -184651.73      23143.37       2395.8469      0.081911541  
     20500   1541.3445     -193688.72      9184.3159     -184504.4       23196.469     -1676.2251      0.091589319  
     20600   1601.0817     -194033.24      9540.2683     -184492.98      23175.982     -176.75113      0.09283022   
     20700   1637.207      -193997.75      9755.5259     -184242.23      23181.861      996.78444      0.084460034  
     20800   1590.9034     -194171.76      9479.6195     -184692.15      23189.581     -1093.0737      0.08233842   
     20900   1561.6215     -194022.3       9305.1393     -184717.16      23141.968      1298.043       0.085240463  
     21000   1566.212      -193956.78      9332.4922     -184624.29      23196.923     -1608.2232      0.082478881  
     21100   1545.1953     -194151.95      9207.2615     -184944.69      23148.264      705.06486      0.082357312  
     21200   1549.7393     -194370.66      9234.3375     -185136.32      23177.947     -904.38477      0.077387539  
     21300   1507.637      -194244.47      8983.4651     -185261         23141.152      1198.965       0.081812926  
     21400   1635.1758     -194249.98      9743.4227     -184506.56      23204.815     -1174.9293      0.082211936  
     21500   1533.5331     -193798.03      9137.7706     -184660.26      23148.394      665.90302      0.089825278  
     21600   1523.4685     -193915.64      9077.7994     -184837.84      23194.807     -1675.1274      0.085782118  
     21700   1548.5794     -193699.23      9227.426      -184471.8       23176.058      217.07565      0.084579994  
     21800   1592.5464     -193881.89      9489.4093     -184392.48      23191.553     -590.72447      0.084289018  
     21900   1602.4909     -193788.86      9548.6652     -184240.2       23179.919      1057.1697      0.084676065  
     22000   1595.8301     -194025.28      9508.976      -184516.3       23180.999      48.520119      0.082925423  
Loop time of 49.2384 on 1 procs for 2000 steps with 2000 atoms

Performance: 3.509 ns/day, 6.839 hours/ns, 40.619 timesteps/s, 81.237 katom-step/s
100.0% CPU use with 1 MPI tasks x 1 OpenMP threads

MPI task timing breakdown:
Section |  min time  |  avg time  |  max time  |%varavg| %total
---------------------------------------------------------------
Pair    | 48.204     | 48.204     | 48.204     |   0.0 | 97.90
Neigh   | 0          | 0          | 0          |   0.0 |  0.00
Comm    | 0.15344    | 0.15344    | 0.15344    |   0.0 |  0.31
Output  | 0.022521   | 0.022521   | 0.022521   |   0.0 |  0.05
Modify  | 0.73814    | 0.73814    | 0.73814    |   0.0 |  1.50
Other   |            | 0.1208     |            |       |  0.25

Nlocal:           2000 ave        2000 max        2000 min
Histogram: 1 0 0 0 0 0 0 0 0 0
Nghost:          12859 ave       12859 max       12859 min
Histogram: 1 0 0 0 0 0 0 0 0 0
Neighs:    1.30892e+06 ave 1.30892e+06 max 1.30892e+06 min
Histogram: 1 0 0 0 0 0 0 0 0 0

Total # of neighbors = 1308916
Ave neighs/atom = 654.458
Neighbor list builds = 0
Dangerous builds = 0
next i
jump SELF loop_heating
variable i loop 151 260
variable Temp equal $i*10
variable Temp equal 157*10
fix 		1 all langevin ${Temp} ${Temp} 100 29345 zero yes
fix 		1 all langevin 1570 ${Temp} 100 29345 zero yes
fix 		1 all langevin 1570 1570 100 29345 zero yes
run 2000
Per MPI rank memory allocation (min/avg/max) = 107 | 107 | 107 Mbytes
   Step          Temp          PotEng         KinEng         TotEng         Volume         Press         c_msd[4]   
     22000   1595.8301     -193495.4       9508.976      -183986.42      23180.999     -197.40599      0.082925423  
     22100   1540.9589     -193867.82      9182.0182     -184685.8       23163.146     -399.23422      0.085582034  
     22200   1578.194      -194224.39      9403.8885     -184820.5       23164.91      -449.32014      0.082386374  
     22300   1612.79       -194346.15      9610.0336     -184736.12      23166.608      365.83094      0.077892895  
     22400   1620.9216     -194126.66      9658.4871     -184468.17      23171.278      1171.4141      0.082296064  
     22500   1597.8632     -194096.36      9521.0902     -184575.27      23169.603      608.26858      0.089693866  
     22600   1594.0904     -193644.1       9498.6099     -184145.49      23183.664     -87.813298      0.095356643  
     22700   1611.0799     -193802.21      9599.8439     -184202.36      23214.984     -1915.3908      0.089260497  
     22800   1595.5067     -193882.78      9507.049      -184375.73      23148.299      1645.94        0.086293578  
     22900   1564.7133     -194121.38      9323.5621     -184797.81      23211.785     -1842.6961      0.084850332  
     23000   1584.3884     -194054.38      9440.7987     -184613.58      23146.016      1135.8794      0.083281524  
     23100   1608.7221     -194118.21      9585.795      -184532.42      23216.181     -950.97048      0.081926103  
     23200   1595.7155     -194087.07      9508.2928     -184578.78      23132.322      2622.093       0.084711187  
     23300   1552.5649     -194101.84      9251.1743     -184850.67      23204.074     -1402.5499      0.08053112   
     23400   1599.9222     -194196.9       9533.359      -184663.54      23127.909      2852.3604      0.082911687  
     23500   1584.2938     -193986.98      9440.2354     -184546.75      23223.101     -1780.6516      0.083447704  
     23600   1546.7908     -194104.35      9216.7682     -184887.58      23135.787      2530.7986      0.084377245  
     23700   1544.2104     -193738.51      9201.3926     -184537.12      23203.881     -2082.9067      0.080677412  
     23800   1572.0063     -193942.92      9367.0184     -184575.9       23145.63       1745.8416      0.082387702  
     23900   1597.7704     -194164.96      9520.5375     -184644.42      23215.197     -2225.5484      0.082614332  
     24000   1604.6134     -194056.47      9561.3124     -184495.16      23155.444      2014.0614      0.085636158  
Loop time of 49.4105 on 1 procs for 2000 steps with 2000 atoms

Performance: 3.497 ns/day, 6.863 hours/ns, 40.477 timesteps/s, 80.954 katom-step/s
100.1% CPU use with 1 MPI tasks x 1 OpenMP threads

MPI task timing breakdown:
Section |  min time  |  avg time  |  max time  |%varavg| %total
---------------------------------------------------------------
Pair    | 48.354     | 48.354     | 48.354     |   0.0 | 97.86
Neigh   | 0          | 0          | 0          |   0.0 |  0.00
Comm    | 0.16091    | 0.16091    | 0.16091    |   0.0 |  0.33
Output  | 0.020631   | 0.020631   | 0.020631   |   0.0 |  0.04
Modify  | 0.75477    | 0.75477    | 0.75477    |   0.0 |  1.53
Other   |            | 0.1205     |            |       |  0.24

Nlocal:           2000 ave        2000 max        2000 min
Histogram: 1 0 0 0 0 0 0 0 0 0
Nghost:          12859 ave       12859 max       12859 min
Histogram: 1 0 0 0 0 0 0 0 0 0
Neighs:    1.30759e+06 ave 1.30759e+06 max 1.30759e+06 min
Histogram: 1 0 0 0 0 0 0 0 0 0

Total # of neighbors = 1307591
Ave neighs/atom = 653.7955
Neighbor list builds = 0
Dangerous builds = 0
next i
jump SELF loop_heating
variable i loop 151 260
variable Temp equal $i*10
variable Temp equal 158*10
fix 		1 all langevin ${Temp} ${Temp} 100 29345 zero yes
fix 		1 all langevin 1580 ${Temp} 100 29345 zero yes
fix 		1 all langevin 1580 1580 100 29345 zero yes
run 2000
Per MPI rank memory allocation (min/avg/max) = 107 | 107 | 107 Mbytes
   Step          Temp          PotEng         KinEng         TotEng         Volume         Press         c_msd[4]   
     24000   1604.6134     -193173.85      9561.3124     -183612.54      23155.444      2507.2019      0.085636158  
     24100   1561.4211     -193919.26      9303.945      -184615.32      23189.012     -1045.387       0.086879469  
     24200   1593.5314     -194135.06      9495.2787     -184639.78      23183.27      -472.62291      0.085742379  
     24300   1565.1418     -193897.92      9326.1154     -184571.8       23182.289     -544.04707      0.083665645  
     24400   1568.5876     -193647.09      9346.6477     -184300.44      23189.61      -580.54874      0.081242168  
     24500   1582.4231     -193917.23      9429.0887     -184488.15      23147.498      1517.9348      0.08799437   
     24600   1575.1528     -193871.53      9385.7674     -184485.77      23216.607     -2224.5111      0.08796295   
     24700   1615.9396     -193782.89      9628.8011     -184154.08      23135.772      2515.2051      0.087504069  
     24800   1599.1364     -194100.21      9528.677      -184571.54      23217.586     -2008.3987      0.080642491  
     24900   1593.1181     -193974.9       9492.8164     -184482.08      23133.467      2178.5802      0.08915683   
     25000   1593.7746     -194292.88      9496.7279     -184796.16      23226.295     -2781.8183      0.079703953  
     25100   1593.3238     -194158.88      9494.0419     -184664.84      23102.728      3619.409       0.088575522  
     25200   1578.2081     -194109.47      9403.9726     -184705.49      23233.301     -2553.8655      0.079333692  
     25300   1531.1732     -194054.35      9123.7088     -184930.65      23098.196      3988.7453      0.086615964  
     25400   1590.9928     -193965.07      9480.152      -184484.92      23242.205     -3723.4842      0.081135552  
     25500   1597.9934     -194325.42      9521.8663     -184803.56      23109.593      3461.2213      0.087460933  
     25600   1537.5945     -193585.04      9161.9712     -184423.07      23202.661     -2097.3517      0.087078869  
     25700   1610.6124     -193733.75      9597.0582     -184136.7       23138.107      1999.3395      0.085892572  
     25800   1597.4442     -194103.93      9518.5935     -184585.34      23214.499     -1498.1496      0.079419556  
     25900   1613.1433     -193885.65      9612.1393     -184273.51      23134.898      2049.4923      0.085954968  
     26000   1589.0783     -193870.53      9468.7443     -184401.79      23226.322     -2976.8545      0.082619611  
Loop time of 49.9165 on 1 procs for 2000 steps with 2000 atoms

Performance: 3.462 ns/day, 6.933 hours/ns, 40.067 timesteps/s, 80.134 katom-step/s
100.1% CPU use with 1 MPI tasks x 1 OpenMP threads

MPI task timing breakdown:
Section |  min time  |  avg time  |  max time  |%varavg| %total
---------------------------------------------------------------
Pair    | 48.858     | 48.858     | 48.858     |   0.0 | 97.88
Neigh   | 0          | 0          | 0          |   0.0 |  0.00
Comm    | 0.15991    | 0.15991    | 0.15991    |   0.0 |  0.32
Output  | 0.022904   | 0.022904   | 0.022904   |   0.0 |  0.05
Modify  | 0.75346    | 0.75346    | 0.75346    |   0.0 |  1.51
Other   |            | 0.1222     |            |       |  0.24

Nlocal:           2000 ave        2000 max        2000 min
Histogram: 1 0 0 0 0 0 0 0 0 0
Nghost:          12859 ave       12859 max       12859 min
Histogram: 1 0 0 0 0 0 0 0 0 0
Neighs:    1.30824e+06 ave 1.30824e+06 max 1.30824e+06 min
Histogram: 1 0 0 0 0 0 0 0 0 0

Total # of neighbors = 1308244
Ave neighs/atom = 654.122
Neighbor list builds = 0
Dangerous builds = 0
next i
jump SELF loop_heating
variable i loop 151 260
variable Temp equal $i*10
variable Temp equal 159*10
fix 		1 all langevin ${Temp} ${Temp} 100 29345 zero yes
fix 		1 all langevin 1590 ${Temp} 100 29345 zero yes
fix 		1 all langevin 1590 1590 100 29345 zero yes
run 2000
Per MPI rank memory allocation (min/avg/max) = 107 | 107 | 107 Mbytes
   Step          Temp          PotEng         KinEng         TotEng         Volume         Press         c_msd[4]   
     26000   1589.0783     -193715.2       9468.7443     -184246.46      23226.322     -1636.2181      0.082619611  
     26100   1579.7497     -193931.62      9413.1587     -184518.46      23156.454      1466.0112      0.087243102  
     26200   1623.2041     -194509.65      9672.0879     -184837.56      23165.753      627.67985      0.082118034  
     26300   1601.5467     -194079.99      9543.0388     -184536.95      23205.55      -1626.9879      0.080468377  
     26400   1592.1724     -193625.66      9487.181      -184138.48      23158.864      1553.3825      0.08540842   
     26500   1595.661      -193599.4       9507.9685     -184091.43      23208.814     -1591.5356      0.089656713  
     26600   1611.33       -193330.87      9601.3344     -183729.54      23177.55       688.15944      0.093228985  
     26700   1643.554      -193566.43      9793.3455     -183773.08      23204.979     -334.23732      0.084706861  
     26800   1606.7865     -193642.77      9574.2611     -184068.51      23157.364      1077.1905      0.086037303  
     26900   1615.6631     -193823.35      9627.1538     -184196.2       23198.907     -890.19808      0.083325006  
     27000   1630.9991     -193927.88      9718.535      -184209.34      23164.043      1473.4477      0.080273628  
     27100   1608.4165     -193786.04      9583.9737     -184202.06      23191.187      265.44119      0.082515074  
     27200   1548.1616     -193743.36      9224.9367     -184518.42      23159.502      222.54341      0.085904423  
     27300   1557.653      -193590.05      9281.4925     -184308.56      23201.361     -1413.8946      0.086421981  
     27400   1607.7809     -193801.9       9580.1862     -184221.71      23152.712      1910.4283      0.088705352  
     27500   1629.0538     -193988.65      9706.9442     -184281.71      23211.43      -1475.8886      0.084345592  
     27600   1583.9238     -193928.01      9438.0303     -184489.98      23149.063      1625.798       0.084408505  
     27700   1563.6722     -193733.91      9317.3584     -184416.55      23222.542     -3121.5448      0.081256529  
     27800   1561.2621     -193931.72      9302.9979     -184628.72      23148.797      1016.959       0.081730142  
     27900   1558.5484     -193831.97      9286.8276     -184545.14      23202.798     -1894.5614      0.080420639  
     28000   1568.1999     -193666.46      9344.3377     -184322.12      23166.691      363.03562      0.086491874  
Loop time of 50.0356 on 1 procs for 2000 steps with 2000 atoms

Performance: 3.454 ns/day, 6.949 hours/ns, 39.972 timesteps/s, 79.943 katom-step/s
100.1% CPU use with 1 MPI tasks x 1 OpenMP threads

MPI task timing breakdown:
Section |  min time  |  avg time  |  max time  |%varavg| %total
---------------------------------------------------------------
Pair    | 49.016     | 49.016     | 49.016     |   0.0 | 97.96
Neigh   | 0          | 0          | 0          |   0.0 |  0.00
Comm    | 0.14876    | 0.14876    | 0.14876    |   0.0 |  0.30
Output  | 0.023806   | 0.023806   | 0.023806   |   0.0 |  0.05
Modify  | 0.73077    | 0.73077    | 0.73077    |   0.0 |  1.46
Other   |            | 0.1162     |            |       |  0.23

Nlocal:           2000 ave        2000 max        2000 min
Histogram: 1 0 0 0 0 0 0 0 0 0
Nghost:          12859 ave       12859 max       12859 min
Histogram: 1 0 0 0 0 0 0 0 0 0
Neighs:    1.30464e+06 ave 1.30464e+06 max 1.30464e+06 min
Histogram: 1 0 0 0 0 0 0 0 0 0

Total # of neighbors = 1304640
Ave neighs/atom = 652.32
Neighbor list builds = 0
Dangerous builds = 0
next i
jump SELF loop_heating
variable i loop 151 260
variable Temp equal $i*10
variable Temp equal 160*10
fix 		1 all langevin ${Temp} ${Temp} 100 29345 zero yes
fix 		1 all langevin 1600 ${Temp} 100 29345 zero yes
fix 		1 all langevin 1600 1600 100 29345 zero yes
run 2000
Per MPI rank memory allocation (min/avg/max) = 107 | 107 | 107 Mbytes
   Step          Temp          PotEng         KinEng         TotEng         Volume         Press         c_msd[4]   
     28000   1568.1999     -194795.21      9344.3377     -185450.87      23166.691     -3304.0858      0.086491874  
     28100   1588.8735     -193723.62      9467.5242     -184256.1       23187.552     -466.02915      0.087259354  
     28200   1617.7315     -194009.39      9639.4783     -184369.91      23155.234      1441.7814      0.085673347  
     28300   1672.0454     -193779.52      9963.1156     -183816.4       23222.075     -1493.0222      0.081769638  
     28400   1638.8093     -193488.29      9765.0734     -183723.22      23156.751      1905.9888      0.087059861  
     28500   1663.7099     -193713.49      9913.4471     -183800.05      23219.939     -789.10957      0.085748988  
     28600   1621.1773     -193501.77      9660.0105     -183841.76      23181.546      1139.0822      0.090886284  
     28700   1643.584      -193752.54      9793.524      -183959.02      23182.339      169.40733      0.085672339  
     28800   1591.0514     -193854.01      9480.5014     -184373.51      23173.619      437.49733      0.084374345  
     28900   1614.5343     -193973.42      9620.4275     -184352.99      23179.958      684.58304      0.082833889  
     29000   1584.1341     -193914.15      9439.2835     -184474.87      23172.594      392.81443      0.083612523  
     29100   1590.6391     -194284.55      9478.0446     -184806.5       23185.242     -678.68578      0.082364182  
     29200   1577.1784     -193904.26      9397.8371     -184506.42      23157.268      1715.8936      0.084970645  
     29300   1537.4771     -193664.45      9161.2715     -184503.18      23193.728     -1330.6822      0.08821266   
     29400   1620.6968     -193912.78      9657.1477     -184255.63      23171.91       774.48918      0.087381015  
     29500   1547.9581     -193656.3       9223.7238     -184432.57      23167.923      4.7583347      0.091726261  
     29600   1551.7177     -193669.14      9246.1258     -184423.02      23203.122     -1859.4073      0.087948362  
     29700   1619.5564     -193839.73      9650.3523     -184189.38      23158.418      1853.4831      0.082688977  
     29800   1572.9884     -193725.12      9372.8707     -184352.25      23225.757     -2367.2942      0.079835096  
     29900   1597.2419     -193857.49      9517.3882     -184340.1       23132.139      2698.554       0.083622137  
     30000   1644.7149     -194102.99      9800.2626     -184302.73      23216.847     -2008.5329      0.08001309   
Loop time of 49.8682 on 1 procs for 2000 steps with 2000 atoms

Performance: 3.465 ns/day, 6.926 hours/ns, 40.106 timesteps/s, 80.211 katom-step/s
100.1% CPU use with 1 MPI tasks x 1 OpenMP threads

MPI task timing breakdown:
Section |  min time  |  avg time  |  max time  |%varavg| %total
---------------------------------------------------------------
Pair    | 48.818     | 48.818     | 48.818     |   0.0 | 97.89
Neigh   | 0          | 0          | 0          |   0.0 |  0.00
Comm    | 0.15813    | 0.15813    | 0.15813    |   0.0 |  0.32
Output  | 0.018375   | 0.018375   | 0.018375   |   0.0 |  0.04
Modify  | 0.75205    | 0.75205    | 0.75205    |   0.0 |  1.51
Other   |            | 0.1219     |            |       |  0.24

Nlocal:           2000 ave        2000 max        2000 min
Histogram: 1 0 0 0 0 0 0 0 0 0
Nghost:          12859 ave       12859 max       12859 min
Histogram: 1 0 0 0 0 0 0 0 0 0
Neighs:    1.30762e+06 ave 1.30762e+06 max 1.30762e+06 min
Histogram: 1 0 0 0 0 0 0 0 0 0

Total # of neighbors = 1307623
Ave neighs/atom = 653.8115
Neighbor list builds = 0
Dangerous builds = 0
next i
jump SELF loop_heating
variable i loop 151 260
variable Temp equal $i*10
variable Temp equal 161*10
fix 		1 all langevin ${Temp} ${Temp} 100 29345 zero yes
fix 		1 all langevin 1610 ${Temp} 100 29345 zero yes
fix 		1 all langevin 1610 1610 100 29345 zero yes
run 2000
Per MPI rank memory allocation (min/avg/max) = 107 | 107 | 107 Mbytes
   Step          Temp          PotEng         KinEng         TotEng         Volume         Press         c_msd[4]   
     30000   1644.7149     -194240.93      9800.2626     -184440.66      23216.847     -1751.0997      0.08001309   
     30100   1590.5379     -193658.85      9477.4416     -184181.4       23135.359      2881.0532      0.089763568  
     30200   1612.3619     -193982.85      9607.4831     -184375.36      23226.867     -2269.6572      0.079914698  
     30300   1643.5202     -193854.49      9793.1441     -184061.34      23152.372      1652.6644      0.082113084  
     30400   1599.3095     -193334.21      9529.7082     -183804.5       23211.458     -1802.4605      0.087172109  
     30500   1640.1995     -193731.98      9773.3573     -183958.63      23170.102      986.05159      0.094133836  
     30600   1642.6066     -193319.52      9787.7002     -183531.82      23221.116     -2141.6868      0.096000719  
     30700   1675.7812     -193962.31      9985.3758     -183976.93      23149.445      2206.2107      0.087990319  
     30800   1697.097      -193867.69      10112.389     -183755.3       23198.431     -348.22173      0.083616165  
     30900   1619.9079     -193793.61      9652.447      -184141.16      23143.447      2122.7386      0.092650421  
     31000   1618.6707     -193597.53      9645.0749     -183952.46      23226.905     -2422.5539      0.087561762  
     31100   1610.4019     -193788.61      9595.804      -184192.81      23152.148      1598.6946      0.085667799  
     31200   1601.1112     -193627.5       9540.4444     -184087.06      23219.752     -1578.2519      0.08043159   
     31300   1600.1068     -193740.06      9534.4593     -184205.6       23162.343      692.90448      0.086238996  
     31400   1575.817      -193702.32      9389.7248     -184312.59      23169.688     -281.06991      0.090623784  
     31500   1570.2078     -193454.74      9356.3018     -184098.44      23189.289     -1007.6215      0.093808727  
     31600   1577.2989     -193522.06      9398.555      -184123.5       23171.533     -146.11925      0.089680688  
     31700   1614.5704     -193189.79      9620.6429     -183569.15      23194.027     -419.36527      0.088645669  
     31800   1658.0971     -193658.33      9880.0027     -183778.32      23181.806      1172.0725      0.0871645    
     31900   1643.8686     -193691.08      9795.2198     -183895.86      23207.756     -1295.065       0.087389186  
     32000   1657.4788     -193504.45      9876.3181     -183628.13      23170.071      1784.5169      0.087860174  
Loop time of 49.82 on 1 procs for 2000 steps with 2000 atoms

Performance: 3.468 ns/day, 6.919 hours/ns, 40.145 timesteps/s, 80.289 katom-step/s
100.1% CPU use with 1 MPI tasks x 1 OpenMP threads

MPI task timing breakdown:
Section |  min time  |  avg time  |  max time  |%varavg| %total
---------------------------------------------------------------
Pair    | 48.815     | 48.815     | 48.815     |   0.0 | 97.98
Neigh   | 0          | 0          | 0          |   0.0 |  0.00
Comm    | 0.14412    | 0.14412    | 0.14412    |   0.0 |  0.29
Output  | 0.022707   | 0.022707   | 0.022707   |   0.0 |  0.05
Modify  | 0.72125    | 0.72125    | 0.72125    |   0.0 |  1.45
Other   |            | 0.1164     |            |       |  0.23

Nlocal:           2000 ave        2000 max        2000 min
Histogram: 1 0 0 0 0 0 0 0 0 0
Nghost:          12859 ave       12859 max       12859 min
Histogram: 1 0 0 0 0 0 0 0 0 0
Neighs:     1.3057e+06 ave  1.3057e+06 max  1.3057e+06 min
Histogram: 1 0 0 0 0 0 0 0 0 0

Total # of neighbors = 1305698
Ave neighs/atom = 652.849
Neighbor list builds = 0
Dangerous builds = 0
next i
jump SELF loop_heating
variable i loop 151 260
variable Temp equal $i*10
variable Temp equal 162*10
fix 		1 all langevin ${Temp} ${Temp} 100 29345 zero yes
fix 		1 all langevin 1620 ${Temp} 100 29345 zero yes
fix 		1 all langevin 1620 1620 100 29345 zero yes
run 2000
Per MPI rank memory allocation (min/avg/max) = 107 | 107 | 107 Mbytes
   Step          Temp          PotEng         KinEng         TotEng         Volume         Press         c_msd[4]   
     32000   1657.4788     -192611.31      9876.3181     -182734.99      23170.071      3878.3817      0.087860174  
     32100   1614.8999     -193491.62      9622.6059     -183869.01      23215.533     -2203.9731      0.088632199  
     32200   1603.4015     -193414.94      9554.091      -183860.85      23167.803      350.42806      0.090776596  
     32300   1622.8656     -193608.69      9670.0708     -183938.62      23228.529     -2463.5131      0.080970873  
     32400   1641.0563     -193482.31      9778.4623     -183703.85      23133.198      2742.9064      0.085010416  
     32500   1614.5599     -193441.58      9620.5799     -183821         23262.728     -3985.5701      0.087844669  
     32600   1652.1964     -193420.08      9844.8422     -183575.24      23131.92       4049.0576      0.093733441  
     32700   1696.7063     -193670.86      10110.061     -183560.8       23227.79      -1874.6198      0.085834917  
     32800   1663.0164     -193544.03      9909.3149     -183634.72      23145.896      2006.4046      0.087927698  
     32900   1623.4728     -193438.8       9673.6888     -183765.12      23231.268     -1922.9778      0.086664062  
     33000   1676.59       -193836.11      9990.1948     -183845.91      23158.631      2159.144       0.083160353  
     33100   1598.295      -193502.18      9523.6631     -183978.52      23179.351     -226.23583      0.086878659  
     33200   1627.7326     -193947.7       9699.0713     -184248.62      23200.65      -441.46731      0.080726298  
     33300   1596.6715     -193662.5       9513.9895     -184148.51      23152.465      1297.4576      0.087220003  
     33400   1613.3443     -193274.6       9613.3368     -183661.26      23224.044     -3180.594       0.090795051  
     33500   1634.8987     -193537.14      9741.7715     -183795.37      23169.998      1570.6761      0.091716159  
     33600   1612.7207     -193725.93      9609.6206     -184116.31      23204.199     -1326.2434      0.088700201  
     33700   1596.8093     -193539.39      9514.8104     -184024.58      23196.936     -577.44809      0.086402891  
     33800   1581.5902     -193687.23      9424.1255     -184263.11      23178.308     -431.0574       0.084158816  
     33900   1613.465      -193798.78      9614.0556     -184184.72      23179.942      318.45886      0.084608131  
     34000   1585.087      -193606.4       9444.9618     -184161.43      23190.826     -23.943616      0.087306249  
Loop time of 49.6771 on 1 procs for 2000 steps with 2000 atoms

Performance: 3.478 ns/day, 6.900 hours/ns, 40.260 timesteps/s, 80.520 katom-step/s
100.0% CPU use with 1 MPI tasks x 1 OpenMP threads

MPI task timing breakdown:
Section |  min time  |  avg time  |  max time  |%varavg| %total
---------------------------------------------------------------
Pair    | 48.687     | 48.687     | 48.687     |   0.0 | 98.01
Neigh   | 0          | 0          | 0          |   0.0 |  0.00
Comm    | 0.14104    | 0.14104    | 0.14104    |   0.0 |  0.28
Output  | 0.022963   | 0.022963   | 0.022963   |   0.0 |  0.05
Modify  | 0.71289    | 0.71289    | 0.71289    |   0.0 |  1.44
Other   |            | 0.1131     |            |       |  0.23

Nlocal:           2000 ave        2000 max        2000 min
Histogram: 1 0 0 0 0 0 0 0 0 0
Nghost:          12859 ave       12859 max       12859 min
Histogram: 1 0 0 0 0 0 0 0 0 0
Neighs:    1.30774e+06 ave 1.30774e+06 max 1.30774e+06 min
Histogram: 1 0 0 0 0 0 0 0 0 0

Total # of neighbors = 1307738
Ave neighs/atom = 653.869
Neighbor list builds = 0
Dangerous builds = 0
next i
jump SELF loop_heating
variable i loop 151 260
variable Temp equal $i*10
variable Temp equal 163*10
fix 		1 all langevin ${Temp} ${Temp} 100 29345 zero yes
fix 		1 all langevin 1630 ${Temp} 100 29345 zero yes
fix 		1 all langevin 1630 1630 100 29345 zero yes
run 2000
Per MPI rank memory allocation (min/avg/max) = 107 | 107 | 107 Mbytes
   Step          Temp          PotEng         KinEng         TotEng         Volume         Press         c_msd[4]   
     34000   1585.087      -191892.14      9444.9618     -182447.18      23190.826      3319.4121      0.087306249  
     34100   1623.0242     -193740.87      9671.0155     -184069.85      23186.342      354.6778       0.086816309  
     34200   1577.0887     -193704.81      9397.3028     -184307.51      23197.119     -1055.076       0.086857471  
     34300   1635.3542     -194011.73      9744.4857     -184267.24      23178.871      493.36442      0.081533782  
     34400   1663.0924     -193485.86      9909.7679     -183576.09      23171.9        1062.9461      0.086775265  
     34500   1622.5445     -193816.14      9668.1572     -184147.98      23236.213     -1983.219       0.086278356  
     34600   1632.1323     -193487.31      9725.2879     -183762.02      23151.756      2498.387       0.094182446  
     34700   1670.3243     -193387.19      9952.8601     -183434.33      23247.671     -2539.7815      0.084479682  
     34800   1692.8074     -193773.24      10086.829     -183686.41      23141.614      4226.3579      0.084080335  
     34900   1634.6734     -193502.56      9740.4292     -183762.13      23256.892     -3382.9957      0.086153226  
     35000   1631.9967     -193443.99      9724.4797     -183719.51      23137.69       2550.332       0.087578729  
     35100   1626.046      -193262.05      9689.0216     -183573.02      23227.528     -1533.1312      0.083745618  
     35200   1649.9501     -193800.16      9831.4577     -183968.71      23158.685      1521.4918      0.08230705   
     35300   1630.9018     -194045.29      9717.9555     -184327.33      23196.977     -472.90272      0.081167676  
     35400   1637.9024     -193776.62      9759.6693     -184016.95      23132.623      3127.179       0.086928709  
     35500   1632.3618     -193894.25      9726.6552     -184167.59      23238.617     -2960.5879      0.085069456  
     35600   1604.4557     -193487.72      9560.3726     -183927.34      23133.976      2040.1707      0.089114817  
     35700   1665.0173     -193410.8       9921.2376     -183489.56      23223.02      -2070.3104      0.086660356  
     35800   1659.5795     -193412.52      9888.8357     -183523.68      23178.044      694.2029       0.089708461  
     35900   1634.701      -193524.29      9740.5936     -183783.7       23209.24      -915.2004       0.08823167   
     36000   1608.4195     -193351.23      9583.9914     -183767.24      23189.089      512.50685      0.090509157  
Loop time of 49.7407 on 1 procs for 2000 steps with 2000 atoms

Performance: 3.474 ns/day, 6.908 hours/ns, 40.209 timesteps/s, 80.417 katom-step/s
100.1% CPU use with 1 MPI tasks x 1 OpenMP threads

MPI task timing breakdown:
Section |  min time  |  avg time  |  max time  |%varavg| %total
---------------------------------------------------------------
Pair    | 48.737     | 48.737     | 48.737     |   0.0 | 97.98
Neigh   | 0          | 0          | 0          |   0.0 |  0.00
Comm    | 0.14847    | 0.14847    | 0.14847    |   0.0 |  0.30
Output  | 0.01925    | 0.01925    | 0.01925    |   0.0 |  0.04
Modify  | 0.72279    | 0.72279    | 0.72279    |   0.0 |  1.45
Other   |            | 0.1133     |            |       |  0.23

Nlocal:           2000 ave        2000 max        2000 min
Histogram: 1 0 0 0 0 0 0 0 0 0
Nghost:          12859 ave       12859 max       12859 min
Histogram: 1 0 0 0 0 0 0 0 0 0
Neighs:    1.30628e+06 ave 1.30628e+06 max 1.30628e+06 min
Histogram: 1 0 0 0 0 0 0 0 0 0

Total # of neighbors = 1306285
Ave neighs/atom = 653.1425
Neighbor list builds = 0
Dangerous builds = 0
next i
jump SELF loop_heating
variable i loop 151 260
variable Temp equal $i*10
variable Temp equal 164*10
fix 		1 all langevin ${Temp} ${Temp} 100 29345 zero yes
fix 		1 all langevin 1640 ${Temp} 100 29345 zero yes
fix 		1 all langevin 1640 1640 100 29345 zero yes
run 2000
Per MPI rank memory allocation (min/avg/max) = 107 | 107 | 107 Mbytes
   Step          Temp          PotEng         KinEng         TotEng         Volume         Press         c_msd[4]   
     36000   1608.4195     -193396.33      9583.9914     -183812.34      23189.089      911.00023      0.090509157  
     36100   1615.0033     -193616.69      9623.2221     -183993.47      23171.909      250.9163       0.09312083   
     36200   1628.7327     -193795.06      9705.0307     -184090.03      23201.955     -1534.3315      0.085004267  
     36300   1648.7997     -193592.12      9824.6029     -183767.52      23186.049      320.34476      0.082360363  
     36400   1654.6301     -193446.39      9859.344      -183587.05      23189.446      740.09988      0.08321331   
     36500   1659.6668     -193672.44      9889.3557     -183783.08      23193.134     -185.97544      0.086406247  
     36600   1637.0289     -193171.58      9754.4646     -183417.12      23186.836     -587.09768      0.09548661   
     36700   1682.2245     -193193.68      10023.769     -183169.91      23207.533     -592.68065      0.088750288  
     36800   1669.3049     -193403.32      9946.7855     -183456.53      23176.73       967.23305      0.087002585  
     36900   1720.3416     -193673.35      10250.895     -183422.46      23229.44      -1917.9496      0.085077815  
     37000   1644.2852     -193597.82      9797.7021     -183800.12      23160.8        2204.0612      0.087473908  
     37100   1634.8736     -193683.99      9741.6218     -183942.37      23219.802     -1741.1457      0.085755143  
     37200   1632.8558     -193616.53      9729.5987     -183886.93      23161.075      2044.2445      0.08566197   
     37300   1615.2952     -193397.9       9624.9615     -183772.94      23238.07      -2586.7948      0.088886164  
     37400   1647.6611     -193245.35      9817.818      -183427.54      23153.628      1452.0283      0.097530283  
     37500   1626.4042     -193701.55      9691.1561     -184010.39      23209.599     -1333.3371      0.089568165  
     37600   1592.5583     -193558.95      9489.4805     -184069.47      23152.653      1323.2372      0.090295576  
     37700   1674.9678     -193462.55      9980.5288     -183482.03      23212.829     -1238.2432      0.088330083  
     37800   1647.1122     -193309.34      9814.5473     -183494.79      23178.369      1162.5133      0.091991102  
     37900   1669.5994     -193473.3       9948.5407     -183524.76      23214.861     -1571.2598      0.090220034  
     38000   1678.4938     -193144.41      10001.539     -183142.87      23216.867     -328.87561      0.091234616  
Loop time of 50.1852 on 1 procs for 2000 steps with 2000 atoms

Performance: 3.443 ns/day, 6.970 hours/ns, 39.852 timesteps/s, 79.705 katom-step/s
100.1% CPU use with 1 MPI tasks x 1 OpenMP threads

MPI task timing breakdown:
Section |  min time  |  avg time  |  max time  |%varavg| %total
---------------------------------------------------------------
Pair    | 49.204     | 49.204     | 49.204     |   0.0 | 98.04
Neigh   | 0          | 0          | 0          |   0.0 |  0.00
Comm    | 0.137      | 0.137      | 0.137      |   0.0 |  0.27
Output  | 0.023244   | 0.023244   | 0.023244   |   0.0 |  0.05
Modify  | 0.70557    | 0.70557    | 0.70557    |   0.0 |  1.41
Other   |            | 0.1156     |            |       |  0.23

Nlocal:           2000 ave        2000 max        2000 min
Histogram: 1 0 0 0 0 0 0 0 0 0
Nghost:          12859 ave       12859 max       12859 min
Histogram: 1 0 0 0 0 0 0 0 0 0
Neighs:    1.30589e+06 ave 1.30589e+06 max 1.30589e+06 min
Histogram: 1 0 0 0 0 0 0 0 0 0

Total # of neighbors = 1305893
Ave neighs/atom = 652.9465
Neighbor list builds = 0
Dangerous builds = 0
next i
jump SELF loop_heating
variable i loop 151 260
variable Temp equal $i*10
variable Temp equal 165*10
fix 		1 all langevin ${Temp} ${Temp} 100 29345 zero yes
fix 		1 all langevin 1650 ${Temp} 100 29345 zero yes
fix 		1 all langevin 1650 1650 100 29345 zero yes
run 2000
Per MPI rank memory allocation (min/avg/max) = 107 | 107 | 107 Mbytes
   Step          Temp          PotEng         KinEng         TotEng         Volume         Press         c_msd[4]   
     38000   1678.4938     -194928.89      10001.539     -184927.35      23216.867     -3156.4404      0.091234616  
     38100   1663.3616     -193423.88      9911.372      -183512.5       23162.439      1574.0019      0.092217765  
     38200   1601.0568     -193616.05      9540.1197     -184075.93      23227.087     -1989.1858      0.08433044   
     38300   1653.0907     -193616.3       9850.1713     -183766.13      23147.131      2332.6102      0.085095816  
     38400   1637.0771     -193443.63      9754.7516     -183688.88      23229.612     -2906.5557      0.083336501  
     38500   1658.9348     -193507.09      9884.9939     -183622.1       23120.288      3240.4207      0.094302066  
     38600   1654.0429     -193312.97      9855.8452     -183457.13      23254.968     -3093.9842      0.089686863  
     38700   1689.3342     -193176.44      10066.133     -183110.3       23135.121      3831.7321      0.093691712  
     38800   1687.9642     -193313.88      10057.97      -183255.91      23240.19      -2257.6841      0.086775877  
     38900   1648.5163     -193573.33      9822.914      -183750.42      23163.378      1379.6049      0.090552317  
     39000   1665.604      -193769.45      9924.7334     -183844.71      23222.425     -1758.8895      0.08421457   
     39100   1663.1356     -193663.78      9910.0253     -183753.75      23132.567      3156.1034      0.08877833   
     39200   1647.0612     -193511.82      9814.2439     -183697.58      23225.666     -2272.0137      0.085367197  
     39300   1611.0363     -193447.25      9599.5843     -183847.67      23162.485      1035.2713      0.090248289  
     39400   1666.0383     -193352.35      9927.321      -183425.03      23206.486     -1245.4781      0.090417711  
     39500   1657.7479     -193638.95      9877.9218     -183761.03      23187.568      410.29983      0.086633425  
     39600   1646.1204     -193354.13      9808.6379     -183545.49      23173.121      371.11405      0.089870349  
     39700   1644.4431     -193157.77      9798.643      -183359.13      23212.124     -1969.4785      0.086284256  
     39800   1690.252      -193493.6       10071.602     -183421.99      23190.024      1340.5564      0.086610024  
     39900   1662.9337     -193888.96      9908.8218     -183980.13      23197.909     -1096.9058      0.082967788  
     40000   1654.3852     -193562.6       9857.8847     -183704.72      23192.492     -171.09045      0.086959433  
Loop time of 50.1027 on 1 procs for 2000 steps with 2000 atoms

Performance: 3.449 ns/day, 6.959 hours/ns, 39.918 timesteps/s, 79.836 katom-step/s
100.1% CPU use with 1 MPI tasks x 1 OpenMP threads

MPI task timing breakdown:
Section |  min time  |  avg time  |  max time  |%varavg| %total
---------------------------------------------------------------
Pair    | 49.112     | 49.112     | 49.112     |   0.0 | 98.02
Neigh   | 0          | 0          | 0          |   0.0 |  0.00
Comm    | 0.14002    | 0.14002    | 0.14002    |   0.0 |  0.28
Output  | 0.022674   | 0.022674   | 0.022674   |   0.0 |  0.05
Modify  | 0.71456    | 0.71456    | 0.71456    |   0.0 |  1.43
Other   |            | 0.1134     |            |       |  0.23

Nlocal:           2000 ave        2000 max        2000 min
Histogram: 1 0 0 0 0 0 0 0 0 0
Nghost:          12859 ave       12859 max       12859 min
Histogram: 1 0 0 0 0 0 0 0 0 0
Neighs:    1.30503e+06 ave 1.30503e+06 max 1.30503e+06 min
Histogram: 1 0 0 0 0 0 0 0 0 0

Total # of neighbors = 1305030
Ave neighs/atom = 652.515
Neighbor list builds = 0
Dangerous builds = 0
next i
jump SELF loop_heating
variable i loop 151 260
variable Temp equal $i*10
variable Temp equal 166*10
fix 		1 all langevin ${Temp} ${Temp} 100 29345 zero yes
fix 		1 all langevin 1660 ${Temp} 100 29345 zero yes
fix 		1 all langevin 1660 1660 100 29345 zero yes
run 2000
Per MPI rank memory allocation (min/avg/max) = 107 | 107 | 107 Mbytes
   Step          Temp          PotEng         KinEng         TotEng         Volume         Press         c_msd[4]   
     40000   1654.3852     -193478.2       9857.8847     -183620.32      23192.492      91.200106      0.086959433  
     40100   1636.3892     -193578.28      9750.6528     -183827.62      23197.587     -46.986759      0.089725171  
     40200   1652.7293     -193363.71      9848.0179     -183515.7       23176.847      729.14801      0.092932001  
     40300   1706.3229     -193464.15      10167.363     -183296.78      23203.393      36.490966      0.08408981   
     40400   1687.4563     -193271.71      10054.943     -183216.77      23191.692      774.1401       0.088186146  
     40500   1629.0217     -193278.18      9706.753      -183571.42      23205.318     -560.6094       0.093196975  
     40600   1666.6322     -193204.31      9930.8604     -183273.44      23182.894      650.44774      0.095348073  
     40700   1691.2642     -193347.7       10077.633     -183270.07      23209.036     -280.8474       0.086125487  
     40800   1685.2414     -193333.13      10041.745     -183291.39      23186.46       691.16904      0.089951236  
     40900   1654.0263     -192971.97      9855.746      -183116.23      23221.326     -909.60183      0.093381222  
     41000   1708.7135     -193618.72      10181.607     -183437.12      23170.806      1996.2936      0.086475543  
     41100   1658.8665     -193303.35      9884.587      -183418.76      23232.539     -2790.6706      0.087417121  
     41200   1661.6041     -193487.88      9900.8995     -183586.98      23132.164      2770.4359      0.09122014   
     41300   1646.5337     -193237.81      9811.1004     -183426.7       23232.565     -2603.4931      0.089906877  
     41400   1707.6794     -193351.39      10175.445     -183175.95      23147.102      3007.0755      0.093792106  
     41500   1633.1914     -193400.45      9731.5982     -183668.85      23212.638     -1213.9003      0.090938454  
     41600   1607.7843     -193326.07      9580.2068     -183745.86      23156.254      535.02744      0.0951512    
     41700   1645.7871     -192878.04      9806.6516     -183071.39      23231.377     -2258.5871      0.089735878  
     41800   1683.4042     -193299.66      10030.798     -183268.86      23169.109      1114.6168      0.089806281  
     41900   1701.5803     -193409.58      10139.103     -183270.48      23217.669     -1330.8978      0.085045919  
     42000   1702.8636     -193674.75      10146.75      -183528         23166.625      1951.4311      0.086306966  
Loop time of 50.3654 on 1 procs for 2000 steps with 2000 atoms

Performance: 3.431 ns/day, 6.995 hours/ns, 39.710 timesteps/s, 79.420 katom-step/s
100.1% CPU use with 1 MPI tasks x 1 OpenMP threads

MPI task timing breakdown:
Section |  min time  |  avg time  |  max time  |%varavg| %total
---------------------------------------------------------------
Pair    | 49.329     | 49.329     | 49.329     |   0.0 | 97.94
Neigh   | 0          | 0          | 0          |   0.0 |  0.00
Comm    | 0.15466    | 0.15466    | 0.15466    |   0.0 |  0.31
Output  | 0.022025   | 0.022025   | 0.022025   |   0.0 |  0.04
Modify  | 0.74217    | 0.74217    | 0.74217    |   0.0 |  1.47
Other   |            | 0.1177     |            |       |  0.23

Nlocal:           2000 ave        2000 max        2000 min
Histogram: 1 0 0 0 0 0 0 0 0 0
Nghost:          12859 ave       12859 max       12859 min
[...]
run 2000
Per MPI rank memory allocation (min/avg/max) = 123.4 | 123.4 | 123.4 Mbytes
   Step          Temp          PotEng         KinEng         TotEng         Volume         Press         c_msd[4]   
    620000   1516.3706     -182828.01      9035.5057     -173792.51      23573.117     -1304.0873      1595.1954    
    620100   1309.8498     -188373.97      7804.9227     -180569.04      23577.664      496.57793      1596.0746    
    620200   1570.7823     -183101.24      9359.7253     -173741.52      23528.743      5953.0983      1593.4751    
    620300   1282.0965     -189014.27      7639.5506     -181374.72      23656.662     -4554.547       1599.8624    
    620400   1523.1871     -185740.36      9076.1226     -176664.24      23627.508     -807.0197       1597.7782    
    620500   1704.0766     -182709.47      10153.978     -172555.49      23612.571      563.0902       1597.0205    
    620600   1430.6098     -185812.59      8524.4875     -177288.11      23521.736      427.6986       1593.0392    
    620700   1559.7992     -186445.32      9294.2809     -177151.04      23540.471     -2924.0118      1594.6131    
    620800   1412.3113     -188444.48      8415.4534     -180029.03      23495.318      3472.7241      1592.8492    
    620900   1628.2298     -181289.87      9702.0343     -171587.83      23792.256     -4081.3915      1606.5355    
    621000   1634.5254     -184840.29      9739.5471     -175100.74      23631.926     -698.94213      1600.0836    
    621100   1652.5245     -182775.84      9846.7973     -172929.04      23805.679     -500.26841      1607.9982    
    621200   1425.722      -185939.99      8495.3631     -177444.63      23800.832     -1717.7302      1606.6879    
    621300   1566.2437     -185189.71      9332.6815     -175857.03      23676.023      2056.3233      1601.9446    
    621400   1516.4046     -180510.18      9035.7079     -171474.47      23618.178      5974.2964      1599.3949    
    621500   1643.7197     -184588.21      9794.3327     -174793.88      23716.642     -3200.7657      1603.6645    
    621600   1417.9148     -187284.36      8448.843      -178835.52      23619.642      1004.8924      1599.396     
    621700   1432.9181     -182952.41      8538.2422     -174414.17      23653.028     -925.44228      1600.7324    
    621800   1795.0599     -183727.02      10696.114     -173030.9       23656.706      6805.9368      1600.2984    
    621900   1436.2746     -186869.94      8558.2423     -178311.69      23734.43      -3480.8735      1604.9378    
    622000   1610.4947     -181811.52      9596.357      -172215.17      23483.916      12706.852      1593.7468    
Loop time of 49.7829 on 1 procs for 2000 steps with 2000 atoms

Performance: 3.471 ns/day, 6.914 hours/ns, 40.174 timesteps/s, 80.349 katom-step/s
100.0% CPU use with 1 MPI tasks x 1 OpenMP threads

MPI task timing breakdown:
Section |  min time  |  avg time  |  max time  |%varavg| %total
---------------------------------------------------------------
Pair    | 49.189     | 49.189     | 49.189     |   0.0 | 98.81
Neigh   | 0.068653   | 0.068653   | 0.068653   |   0.0 |  0.14
Comm    | 0.069785   | 0.069785   | 0.069785   |   0.0 |  0.14
Output  | 0.01293    | 0.01293    | 0.01293    |   0.0 |  0.03
Modify  | 0.40795    | 0.40795    | 0.40795    |   0.0 |  0.82
Other   |            | 0.03431    |            |       |  0.07

Nlocal:           2000 ave        2000 max        2000 min
Histogram: 1 0 0 0 0 0 0 0 0 0
Nghost:          12640 ave       12640 max       12640 min
Histogram: 1 0 0 0 0 0 0 0 0 0
Neighs:    1.26161e+06 ave 1.26161e+06 max 1.26161e+06 min
Histogram: 1 0 0 0 0 0 0 0 0 0

Total # of neighbors = 1261611
Ave neighs/atom = 630.8055
Neighbor list builds = 45
Dangerous builds = 0
next i
jump SELF loop_cooling
variable i loop 1 200
variable Temp equal (260-$i)*10
variable Temp equal (260-197)*10
fix 		1 all langevin ${Temp} ${Temp} 100 29345 zero yes
fix 		1 all langevin 630 ${Temp} 100 29345 zero yes
fix 		1 all langevin 630 630 100 29345 zero yes
run 2000
Per MPI rank memory allocation (min/avg/max) = 123.4 | 123.4 | 123.4 Mbytes
   Step          Temp          PotEng         KinEng         TotEng         Volume         Press         c_msd[4]   
    622000   1610.4947     -179157.38      9596.357      -169561.02      23483.916      16939.381      1593.7468    
    622100   1434.1813     -186963.01      8545.7687     -178417.25      23644.908     -2248.5219      1601.512     
    622200   1550.4046     -183907.34      9238.3019     -174669.04      23422.465      8018.127       1591.7577    
    622300   1476.055      -183022.33      8795.2791     -174227.05      23794.51      -8034.8093      1608.3363    
    622400   1809.7297     -183736.93      10783.526     -172953.41      23481.279      9435.223       1595.028     
    622500   1535.6277     -184668.98      9150.2515     -175518.73      23680.589     -5769.6338      1603.1184    
    622600   1647.1848     -182236.75      9814.9802     -172421.77      23614.371      5136.1303      1600.4191    
    622700   1478.1416     -185024.98      8807.7128     -176217.27      23752.546     -6670.4349      1607.3194    
    622800   1447.9955     -184152.63      8628.0827     -175524.55      23552.764      787.16732      1597.9745    
    622900   1203.0186     -191650.59      7168.3538     -184482.24      23485.9       -9437.6413      1594.5727    
    623000   1425.5424     -183018.32      8494.2927     -174524.03      23726.74      -7292.2656      1605.8535    
    623100   1579.8466     -182911.72      9413.7358     -173497.99      23474.055      3623.5893      1594.4507    
    623200   1494.7775     -184254.79      8906.84       -175347.95      23505.513      372.48583      1595.065     
    623300   1281.7384     -188020.38      7637.4168     -180382.96      23548.081     -2268.522       1597.5202    
    623400   1461.0314     -185512.43      8705.7593     -176806.67      23619.18       662.23829      1600.7973    
    623500   1811.3872     -182213.65      10793.403     -171420.25      23441.611      10604.867      1593.3433    
    623600   1711.5455     -182826.34      10198.482     -172627.85      23609.727      34.506264      1601.3162    
    623700   1605.4396     -184171.33      9566.2357     -174605.09      23654.336     -1420.7532      1603.0938    
    623800   1369.0538     -190453.61      8157.698      -182295.91      23387.341     -994.65934      1590.8551    
    623900   1516.9707     -182241.38      9039.0813     -173202.3       23723.499     -7028.4513      1605.9346    
    624000   2415.193      -183108.98      14391.264     -168717.72      23438.3        17460.281      1592.636     
Loop time of 50.2906 on 1 procs for 2000 steps with 2000 atoms

Performance: 3.436 ns/day, 6.985 hours/ns, 39.769 timesteps/s, 79.538 katom-step/s
100.0% CPU use with 1 MPI tasks x 1 OpenMP threads

MPI task timing breakdown:
Section |  min time  |  avg time  |  max time  |%varavg| %total
---------------------------------------------------------------
Pair    | 49.7       | 49.7       | 49.7       |   0.0 | 98.83
Neigh   | 0.068764   | 0.068764   | 0.068764   |   0.0 |  0.14
Comm    | 0.069612   | 0.069612   | 0.069612   |   0.0 |  0.14
Output  | 0.012754   | 0.012754   | 0.012754   |   0.0 |  0.03
Modify  | 0.40519    | 0.40519    | 0.40519    |   0.0 |  0.81
Other   |            | 0.03417    |            |       |  0.07

Nlocal:           2000 ave        2000 max        2000 min
Histogram: 1 0 0 0 0 0 0 0 0 0
Nghost:          12684 ave       12684 max       12684 min
Histogram: 1 0 0 0 0 0 0 0 0 0
Neighs:    1.26691e+06 ave 1.26691e+06 max 1.26691e+06 min
Histogram: 1 0 0 0 0 0 0 0 0 0

Total # of neighbors = 1266913
Ave neighs/atom = 633.4565
Neighbor list builds = 45
Dangerous builds = 0
next i
jump SELF loop_cooling
variable i loop 1 200
variable Temp equal (260-$i)*10
variable Temp equal (260-198)*10
fix 		1 all langevin ${Temp} ${Temp} 100 29345 zero yes
fix 		1 all langevin 620 ${Temp} 100 29345 zero yes
fix 		1 all langevin 620 620 100 29345 zero yes
run 2000
Per MPI rank memory allocation (min/avg/max) = 123.4 | 123.4 | 123.4 Mbytes
   Step          Temp          PotEng         KinEng         TotEng         Volume         Press         c_msd[4]   
    624000   2415.193      -182239.89      14391.264     -167848.62      23438.3        17070.044      1592.636     
    624100   1460.7731     -186971.7       8704.22       -178267.48      23668.035     -2378.5538      1603.432     
    624200   1527.3245     -184161.55      9100.7755     -175060.77      23718.285     -959.05829      1606.4893    
    624300   1765.5712     -183450.84      10520.402     -172930.44      23715.444      99.115255      1606.0042    
    624400   1633.1894     -184129.95      9731.5867     -174398.37      23514.384      1023.2861      1596.4411    
    624500   1765.686      -183761.07      10521.086     -173239.99      23634.666     -1108.9891      1602.5562    
    624600   1575.2264     -183953.47      9386.2061     -174567.26      23733.262     -2813.0149      1607.4948    
    624700   1590.2692     -183605.7       9475.8403     -174129.86      23654.846     -2869.3408      1604.9918    
    624800   1381.3727     -182375.73      8231.1014     -174144.63      23768.504     -3960.4837      1610.2278    
    624900   1244.1482     -190817.38      7413.4306     -183403.95      23516.326     -6544.7689      1599.0578    
    625000   1513.887      -182701.99      9020.7068     -173681.29      23637.621     -1249.3251      1602.9855    
    625100   1434.2497     -183275.19      8546.1768     -174729.02      23521.708      920.27491      1598.6287    
    625200   1612.8674     -182534.97      9610.4951     -172924.48      23507.35       2981.553       1597.6236    
    625300   1669.2739     -184456.67      9946.6011     -174510.06      23635.087     -4046.1193      1603.2907    
    625400   1476.8824     -186273.7       8800.2092     -177473.49      23501.684      1768.7414      1597.647     
    625500   2069.3264     -184320.66      12330.369     -171990.29      23340.75       14482.68       1590.8826    
    625600   1402.7237     -186544.93      8358.3244     -178186.6       23765.161     -4666.5104      1609.6857    
    625700   1774.0487     -184185.21      10570.916     -173614.3       23412.916      5837.8004      1594.3083    
    625800   1610.0008     -185363.34      9593.414      -175769.92      23608.092     -2450.9106      1603.2295    
    625900   1648.8026     -184251.21      9824.6202     -174426.59      23561.04       2953.9059      1601.6129    
    626000   1767.5682     -185009.62      10532.302     -174477.31      23683.166     -2427.9596      1606.3884    
Loop time of 50.3712 on 1 procs for 2000 steps with 2000 atoms

Performance: 3.431 ns/day, 6.996 hours/ns, 39.705 timesteps/s, 79.411 katom-step/s
100.0% CPU use with 1 MPI tasks x 1 OpenMP threads

MPI task timing breakdown:
Section |  min time  |  avg time  |  max time  |%varavg| %total
---------------------------------------------------------------
Pair    | 49.774     | 49.774     | 49.774     |   0.0 | 98.81
Neigh   | 0.073647   | 0.073647   | 0.073647   |   0.0 |  0.15
Comm    | 0.071139   | 0.071139   | 0.071139   |   0.0 |  0.14
Output  | 0.01318    | 0.01318    | 0.01318    |   0.0 |  0.03
Modify  | 0.40557    | 0.40557    | 0.40557    |   0.0 |  0.81
Other   |            | 0.03411    |            |       |  0.07

Nlocal:           2000 ave        2000 max        2000 min
Histogram: 1 0 0 0 0 0 0 0 0 0
Nghost:          12627 ave       12627 max       12627 min
Histogram: 1 0 0 0 0 0 0 0 0 0
Neighs:    1.25295e+06 ave 1.25295e+06 max 1.25295e+06 min
Histogram: 1 0 0 0 0 0 0 0 0 0

Total # of neighbors = 1252952
Ave neighs/atom = 626.476
Neighbor list builds = 48
Dangerous builds = 0
next i
jump SELF loop_cooling
variable i loop 1 200
variable Temp equal (260-$i)*10
variable Temp equal (260-199)*10
fix 		1 all langevin ${Temp} ${Temp} 100 29345 zero yes
fix 		1 all langevin 610 ${Temp} 100 29345 zero yes
fix 		1 all langevin 610 610 100 29345 zero yes
run 2000
Per MPI rank memory allocation (min/avg/max) = 123.4 | 123.4 | 123.4 Mbytes
   Step          Temp          PotEng         KinEng         TotEng         Volume         Press         c_msd[4]   
    626000   1767.5682     -182476.24      10532.302     -171943.94      23683.166     -731.82593      1606.3884    
    626100   1266.3001     -188869.9       7545.4256     -181324.47      23485.509      6032.6073      1597.3282    
    626200   1551.6424     -183433.58      9245.6771     -174187.9       23589.972      8107.688       1601.8635    
    626300   1535.7403     -185462.78      9150.9228     -176311.86      23821.388     -7563.549       1612.0725    
    626400   1468.5568     -182790.4       8750.6001     -174039.8       23536.678     -2642.3693      1598.738     
    626500   2170.1425     -182644.05      12931.096     -169712.96      23355.046      16771.308      1591.1417    
    626600   1508.245      -181755.69      8987.0881     -172768.6       23807.854     -7725.8647      1611.4481    
    626700   1543.7391     -184330.3       9198.5847     -175131.72      23621.659      1122.55        1601.8796    
    626800   1323.0671     -188331.79      7883.6799     -180448.11      23574.643     -1638.5536      1600.5618    
    626900   1388.3663     -182926.36      8272.7738     -174653.58      23828.149     -3760.2096      1611.9287    
    627000   1659.1908     -182775.69      9886.5193     -172889.17      23588.534      254.00024      1601.8854    
    627100   1526.8849     -185498.95      9098.1564     -176400.8       23610.897      1724.5355      1602.4679    
    627200   1453.8627     -186420.59      8663.0432     -177757.55      23752.774      8.8980722      1609.943     
    627300   1681.9915     -183398.5       10022.381     -173376.12      23826.264     -1136.5313      1613.6005    
    627400   1854.8945     -182188.44      11052.647     -171135.79      23672.99       4012.7046      1606.8579    
    627500   1434.6611     -184711.18      8548.6282     -176162.55      23816.949     -6565.9954      1613.5608    
    627600   1574.9189     -186360.95      9384.3736     -176976.58      23786.873      1982.6265      1611.9537    
    627700   1276.6515     -190009.27      7607.1057     -182402.16      23724.745     -6585.6558      1609.6574    
    627800   1578.5319     -185286.14      9405.9021     -175880.24      23823.636     -5010.6173      1614.704     
    627900   1796.0998     -182169.94      10702.311     -171467.63      23587.882      6736.3523      1603.8526    
    628000   1685.5102     -183022.79      10043.347     -172979.45      23871.741     -2231.8301      1617.5571    
Loop time of 50.1354 on 1 procs for 2000 steps with 2000 atoms

Performance: 3.447 ns/day, 6.963 hours/ns, 39.892 timesteps/s, 79.784 katom-step/s
100.0% CPU use with 1 MPI tasks x 1 OpenMP threads

MPI task timing breakdown:
Section |  min time  |  avg time  |  max time  |%varavg| %total
---------------------------------------------------------------
Pair    | 49.539     | 49.539     | 49.539     |   0.0 | 98.81
Neigh   | 0.072204   | 0.072204   | 0.072204   |   0.0 |  0.14
Comm    | 0.07077    | 0.07077    | 0.07077    |   0.0 |  0.14
Output  | 0.013128   | 0.013128   | 0.013128   |   0.0 |  0.03
Modify  | 0.40591    | 0.40591    | 0.40591    |   0.0 |  0.81
Other   |            | 0.03439    |            |       |  0.07

Nlocal:           2000 ave        2000 max        2000 min
Histogram: 1 0 0 0 0 0 0 0 0 0
Nghost:          12531 ave       12531 max       12531 min
Histogram: 1 0 0 0 0 0 0 0 0 0
Neighs:    1.24269e+06 ave 1.24269e+06 max 1.24269e+06 min
Histogram: 1 0 0 0 0 0 0 0 0 0

Total # of neighbors = 1242688
Ave neighs/atom = 621.344
Neighbor list builds = 47
Dangerous builds = 0
next i
jump SELF loop_cooling
variable i loop 1 200
variable Temp equal (260-$i)*10
variable Temp equal (260-200)*10
fix 		1 all langevin ${Temp} ${Temp} 100 29345 zero yes
fix 		1 all langevin 600 ${Temp} 100 29345 zero yes
fix 		1 all langevin 600 600 100 29345 zero yes
run 2000
Per MPI rank memory allocation (min/avg/max) = 123.4 | 123.4 | 123.4 Mbytes
   Step          Temp          PotEng         KinEng         TotEng         Volume         Press         c_msd[4]   
    628000   1685.5102     -179762.44      10043.347     -169719.09      23871.741      153.28467      1617.5571    
    628100   1315.045      -188324.32      7835.8786     -180488.44      23505.768      9307.3336      1600.3416    
    628200   1588.1108     -182358.57      9462.9792     -172895.59      23509.495      2926.2329      1600.262     
    628300   1334.283      -188333.01      7950.5111     -180382.49      23544.349     -5234.5142      1602.3929    
    628400   1605.8967     -183681.26      9568.9589     -174112.3       23564.061     -496.13584      1602.8739    
    628500   2065.1335     -181024.87      12305.385     -168719.49      23597.735      14273.143      1604.9423    
    628600   1554.3785     -181957.8       9261.981      -172695.82      23843.259     -7022.9116      1616.8817    
    628700   1576.7401     -182562.4       9395.2255     -173167.17      23593.003      6111.8185      1605.5218    
    628800   1305.0328     -177831.33      7776.2198     -170055.11      23583.202      4318.6576      1605.8708    
    628900   1520.603      -182361.72      9060.7248     -173300.99      23702.798     -5041.1324      1610.6143    
    629000   1444.413      -185845.02      8606.7362     -177238.29      23620.323      808.42755      1607.1513    
    629100   1437.6928     -185403.2       8566.6926     -176836.5       23638.84       1042.2616      1607.633     
    629200   1597.666      -185189.19      9519.9155     -175669.27      23552.964     -3183.5621      1604.3423    
    629300   1486.1518     -186013.64      8855.4423     -177158.2       23511.982     -358.94684      1602.553     
    629400   1543.8419     -183217.29      9199.1969     -174018.09      23669.335     -942.38433      1609.7925    
    629500   1276.1883     -187341.25      7604.3455     -179736.9       23561.531     -1103.5751      1604.5936    
    629600   1869.2327     -179072.6       11138.083     -167934.51      23410.951      17377.768      1597.4587    
    629700   1506.0417     -184782.29      8973.9591     -175808.33      23848.973     -7125.5779      1616.9694    
    629800   1540.2347     -183968.11      9177.7032     -174790.41      23498.793      948.51352      1600.9729    
    629900   1402.2576     -186658.47      8355.5473     -178302.92      23494.529     -1863.434       1600.7525    
    630000   1377.1578     -188414.9       8205.9867     -180208.92      23549.582      1187.4347      1603.4526    
Loop time of 50.4642 on 1 procs for 2000 steps with 2000 atoms

Performance: 3.424 ns/day, 7.009 hours/ns, 39.632 timesteps/s, 79.264 katom-step/s
100.0% CPU use with 1 MPI tasks x 1 OpenMP threads

MPI task timing breakdown:
Section |  min time  |  avg time  |  max time  |%varavg| %total
---------------------------------------------------------------
Pair    | 49.879     | 49.879     | 49.879     |   0.0 | 98.84
Neigh   | 0.064486   | 0.064486   | 0.064486   |   0.0 |  0.13
Comm    | 0.06813    | 0.06813    | 0.06813    |   0.0 |  0.14
Output  | 0.012821   | 0.012821   | 0.012821   |   0.0 |  0.03
Modify  | 0.40516    | 0.40516    | 0.40516    |   0.0 |  0.80
Other   |            | 0.03421    |            |       |  0.07

Nlocal:           2000 ave        2000 max        2000 min
Histogram: 1 0 0 0 0 0 0 0 0 0
Nghost:          12657 ave       12657 max       12657 min
Histogram: 1 0 0 0 0 0 0 0 0 0
Neighs:    1.26355e+06 ave 1.26355e+06 max 1.26355e+06 min
Histogram: 1 0 0 0 0 0 0 0 0 0

Total # of neighbors = 1263552
Ave neighs/atom = 631.776
Neighbor list builds = 42
Dangerous builds = 0
next i
jump SELF loop_cooling

Total wall time: 4:24:23
